VARIABLES = "y/h", "u", "v", "P", "nuhat", "y+", "U+", "uprime+", "vprime+", "wprime+", "r12+", "muT"
ZONE t="turbulent profile"
9.70411804e-01	6.94408568e+01	1.04837010e-01	9.72500070e+04	4.70705008e-05	1.73908411e+05	2.77004036e+01	0.00000000e+00	0.00000000e+00	0.00000000e+00	-0.00000000e+00	5.21660011e-06
9.12986334e-01	6.94463638e+01	1.04925161e-01	9.72500292e+04	4.70734433e-05	1.63617139e+05	2.77026004e+01	0.00000000e+00	0.00000000e+00	0.00000000e+00	-0.00000000e+00	5.21660011e-06
8.58959096e-01	6.94515673e+01	1.05078983e-01	9.72500489e+04	4.70735937e-05	1.53934866e+05	2.77046761e+01	0.00000000e+00	0.00000000e+00	0.00000000e+00	-0.00000000e+00	5.21660011e-06
8.08128996e-01	6.94565755e+01	1.05289985e-01	9.72500660e+04	4.70738514e-05	1.44825557e+05	2.77066738e+01	0.00000000e+00	0.00000000e+00	0.00000000e+00	-0.00000000e+00	5.21660011e-06
7.60306837e-01	6.94614085e+01	1.05546559e-01	9.72500800e+04	4.70741710e-05	1.36255302e+05	2.77086018e+01	0.00000000e+00	0.00000000e+00	0.00000000e+00	-0.00000000e+00	5.21660011e-06
7.15314621e-01	6.94660917e+01	1.05838637e-01	9.72500909e+04	4.70745371e-05	1.28192205e+05	2.77104699e+01	0.00000000e+00	0.00000000e+00	0.00000000e+00	-0.00000000e+00	5.21660011e-06
6.72984883e-01	6.94706395e+01	1.06157430e-01	9.72500986e+04	4.70749373e-05	1.20606253e+05	2.77122841e+01	0.00000000e+00	0.00000000e+00	0.00000000e+00	-0.00000000e+00	5.21660011e-06
6.33160065e-01	6.94750615e+01	1.06495461e-01	9.72501034e+04	4.70753609e-05	1.13469210e+05	2.77140481e+01	0.00000000e+00	0.00000000e+00	0.00000000e+00	-0.00000000e+00	5.21660011e-06
5.95691936e-01	6.94793629e+01	1.06846422e-01	9.72501056e+04	4.70757972e-05	1.06754511e+05	2.77157639e+01	0.00000000e+00	0.00000000e+00	0.00000000e+00	-0.00000000e+00	5.21660011e-06
5.60441037e-01	6.94835451e+01	1.07205032e-01	9.72501053e+04	4.70762354e-05	1.00437165e+05	2.77174322e+01	0.00000000e+00	0.00000000e+00	0.00000000e+00	-0.00000000e+00	5.21660011e-06
5.27276158e-01	6.94876070e+01	1.07566903e-01	9.72501028e+04	4.70766644e-05	9.44936556e+04	2.77190525e+01	0.00000000e+00	0.00000000e+00	0.00000000e+00	-0.00000000e+00	5.21660011e-06
4.96073857e-01	6.94915455e+01	1.07928416e-01	9.72500985e+04	4.70770734e-05	8.89018619e+04	2.77206236e+01	0.00000000e+00	0.00000000e+00	0.00000000e+00	-0.00000000e+00	5.21660011e-06
4.66717996e-01	6.94953563e+01	1.08286610e-01	9.72500926e+04	4.70774513e-05	8.36409705e+04	2.77221438e+01	0.00000000e+00	0.00000000e+00	0.00000000e+00	-0.00000000e+00	5.21660011e-06
4.39099308e-01	6.94990341e+01	1.08639083e-01	9.72500855e+04	4.70777876e-05	7.86913995e+04	2.77236109e+01	0.00000000e+00	0.00000000e+00	0.00000000e+00	-0.00000000e+00	5.21660011e-06
4.13114995e-01	6.95025732e+01	1.08983913e-01	9.72500772e+04	4.70780721e-05	7.40347263e+04	2.77250226e+01	0.00000000e+00	0.00000000e+00	0.00000000e+00	-0.00000000e+00	5.21660011e-06
3.88668340e-01	6.95059682e+01	1.09319584e-01	9.72500681e+04	4.70782954e-05	6.96536183e+04	2.77263769e+01	0.00000000e+00	0.00000000e+00	0.00000000e+00	-0.00000000e+00	5.21660011e-06
3.65668350e-01	6.95092139e+01	1.09644929e-01	9.72500583e+04	4.70784492e-05	6.55317685e+04	2.77276717e+01	0.00000000e+00	0.00000000e+00	0.00000000e+00	-0.00000000e+00	5.21660011e-06
3.44029416e-01	6.95123059e+01	1.09959074e-01	9.72500481e+04	4.70785263e-05	6.16538348e+04	2.77289051e+01	0.00000000e+00	0.00000000e+00	0.00000000e+00	-0.00000000e+00	5.21660011e-06
3.23670996e-01	6.95152406e+01	1.10261396e-01	9.72500376e+04	4.70785208e-05	5.80053832e+04	2.77300758e+01	0.00000000e+00	0.00000000e+00	0.00000000e+00	-0.00000000e+00	5.21660011e-06
3.04517314e-01	6.95180157e+01	1.10551484e-01	9.72500269e+04	4.70784287e-05	5.45728339e+04	2.77311827e+01	0.00000000e+00	0.00000000e+00	0.00000000e+00	-0.00000000e+00	5.21660011e-06
2.86497078e-01	6.95206299e+01	1.10829108e-01	9.72500161e+04	4.70782470e-05	5.13434105e+04	2.77322256e+01	0.00000000e+00	0.00000000e+00	0.00000000e+00	-0.00000000e+00	5.21660011e-06
2.69543215e-01	6.95230832e+01	1.11094186e-01	9.72500053e+04	4.70779746e-05	4.83050928e+04	2.77332042e+01	0.00000000e+00	0.00000000e+00	0.00000000e+00	-0.00000000e+00	5.21660011e-06
2.53592620e-01	6.95253771e+01	1.11346764e-01	9.72499947e+04	4.70776116e-05	4.54465717e+04	2.77341193e+01	0.00000000e+00	0.00000000e+00	0.00000000e+00	-0.00000000e+00	5.21660011e-06
2.38585923e-01	6.95275142e+01	1.11586987e-01	9.72499842e+04	4.70771591e-05	4.27572074e+04	2.77349718e+01	0.00000000e+00	0.00000000e+00	0.00000000e+00	-0.00000000e+00	5.21660011e-06
2.24467269e-01	6.95294981e+01	1.11815087e-01	9.72499739e+04	4.70766189e-05	4.02269901e+04	2.77357631e+01	0.00000000e+00	0.00000000e+00	0.00000000e+00	-0.00000000e+00	5.21660011e-06
2.11184106e-01	6.95313335e+01	1.12031361e-01	9.72499639e+04	4.70759930e-05	3.78465020e+04	2.77364953e+01	0.00000000e+00	0.00000000e+00	0.00000000e+00	-0.00000000e+00	5.21660011e-06
1.98686992e-01	6.95330263e+01	1.12236158e-01	9.72499542e+04	4.70752833e-05	3.56068825e+04	2.77371706e+01	0.00000000e+00	0.00000000e+00	0.00000000e+00	-0.00000000e+00	5.21660011e-06
1.86929413e-01	6.95345826e+01	1.12429866e-01	9.72499448e+04	4.70744905e-05	3.34997957e+04	2.77377914e+01	0.00000000e+00	0.00000000e+00	0.00000000e+00	-0.00000000e+00	5.21660011e-06
1.75867604e-01	6.95360096e+01	1.12612902e-01	9.72499357e+04	4.70736134e-05	3.15173985e+04	2.77383606e+01	0.00000000e+00	0.00000000e+00	0.00000000e+00	-0.00000000e+00	5.21660011e-06
1.65460394e-01	6.95373143e+01	1.12785701e-01	9.72499270e+04	4.70726477e-05	2.96523126e+04	2.77388811e+01	0.00000000e+00	0.00000000e+00	0.00000000e+00	-0.00000000e+00	5.21660011e-06
1.55669045e-01	6.95385045e+01	1.12948710e-01	9.72499186e+04	4.70715845e-05	2.78975958e+04	2.77393559e+01	0.00000000e+00	0.00000000e+00	0.00000000e+00	-0.00000000e+00	5.21660011e-06
1.46457112e-01	6.95395878e+01	1.13102379e-01	9.72499106e+04	4.70704075e-05	2.62467166e+04	2.77397880e+01	0.00000000e+00	0.00000000e+00	0.00000000e+00	-0.00000000e+00	5.21660011e-06
1.37790309e-01	6.95405717e+01	1.13247160e-01	9.72499029e+04	4.70690884e-05	2.46935307e+04	2.77401805e+01	0.00000000e+00	0.00000000e+00	0.00000000e+00	-0.00000000e+00	5.21660011e-06
1.29636375e-01	6.95414638e+01	1.13383497e-01	9.72498955e+04	4.70675796e-05	2.32322565e+04	2.77405363e+01	0.00000000e+00	0.00000000e+00	0.00000000e+00	-0.00000000e+00	5.21660011e-06
1.21964962e-01	6.95422712e+01	1.13511828e-01	9.72498885e+04	4.70658063e-05	2.18574554e+04	2.77408584e+01	0.00000000e+00	0.00000000e+00	0.00000000e+00	-0.00000000e+00	5.21660011e-06
1.14747515e-01	6.95430011e+01	1.13632578e-01	9.72498818e+04	4.70636592e-05	2.05640100e+04	2.77411496e+01	0.00000000e+00	0.00000000e+00	0.00000000e+00	-0.00000000e+00	5.21660011e-06
1.07957171e-01	6.95436600e+01	1.13746158e-01	9.72498754e+04	4.70607131e-05	1.93471060e+04	2.77414124e+01	0.00000000e+00	0.00000000e+00	0.00000000e+00	-0.00000000e+00	5.21660011e-06
1.01568655e-01	6.95442541e+01	1.13852968e-01	9.72498694e+04	4.70546057e-05	1.82022141e+04	2.77416494e+01	0.00000000e+00	0.00000000e+00	0.00000000e+00	-0.00000000e+00	5.21660011e-06
9.55581887e-02	6.95447894e+01	1.13953387e-01	9.72498636e+04	4.70401137e-05	1.71250728e+04	2.77418629e+01	0.00000000e+00	0.00000000e+00	0.00000000e+00	-0.00000000e+00	5.21660011e-06
8.99033997e-02	6.95452712e+01	1.14047782e-01	9.72498582e+04	4.70247082e-05	1.61116727e+04	2.77420551e+01	0.00000000e+00	0.00000000e+00	0.00000000e+00	-0.00000000e+00	5.21660011e-06
8.45832408e-02	6.95457046e+01	1.14136500e-01	9.72498530e+04	4.70183522e-05	1.51582420e+04	2.77422281e+01	0.00000000e+00	0.00000000e+00	0.00000000e+00	-0.00000000e+00	5.21660011e-06
7.95779096e-02	6.95460944e+01	1.14219875e-01	9.72498481e+04	4.70110914e-05	1.42612319e+04	2.77423835e+01	0.00000000e+00	0.00000000e+00	0.00000000e+00	-0.00000000e+00	5.21660011e-06
7.48687759e-02	6.95464447e+01	1.14298219e-01	9.72498434e+04	4.70030226e-05	1.34173037e+04	2.77425233e+01	0.00000000e+00	0.00000000e+00	0.00000000e+00	-0.00000000e+00	5.21660011e-06
7.04383117e-02	6.95467594e+01	1.14371832e-01	9.72498390e+04	4.69940193e-05	1.26233160e+04	2.77426488e+01	0.00000000e+00	0.00000000e+00	0.00000000e+00	-0.00000000e+00	5.21660011e-06
6.62700264e-02	6.95470422e+01	1.14440997e-01	9.72498349e+04	4.69839469e-05	1.18763137e+04	2.77427616e+01	0.00000000e+00	0.00000000e+00	0.00000000e+00	-0.00000000e+00	5.21660011e-06
6.23484052e-02	6.95472962e+01	1.14505979e-01	9.72498309e+04	4.69726522e-05	1.11735163e+04	2.77428629e+01	0.00000000e+00	0.00000000e+00	0.00000000e+00	-0.00000000e+00	5.21660011e-06
5.86588514e-02	6.95475243e+01	1.14567031e-01	9.72498272e+04	4.69599644e-05	1.05123079e+04	2.77429539e+01	0.00000000e+00	0.00000000e+00	0.00000000e+00	-0.00000000e+00	5.21660011e-06
5.51876320e-02	6.95477293e+01	1.14624389e-01	9.72498236e+04	4.69456903e-05	9.89022737e+03	2.77430357e+01	0.00000000e+00	0.00000000e+00	0.00000000e+00	-0.00000000e+00	5.21660011e-06
5.19218269e-02	6.95479134e+01	1.14678279e-01	9.72498203e+04	4.69296110e-05	9.30495937e+03	2.77431091e+01	0.00000000e+00	0.00000000e+00	0.00000000e+00	-0.00000000e+00	5.21660011e-06
4.88492803e-02	6.95480789e+01	1.14728909e-01	9.72498172e+04	4.69114736e-05	8.75432541e+03	2.77431752e+01	0.00000000e+00	0.00000000e+00	0.00000000e+00	-0.00000000e+00	5.21660011e-06
4.59585560e-02	6.95482276e+01	1.14776479e-01	9.72498142e+04	4.68909893e-05	8.23627599e+03	2.77432345e+01	0.00000000e+00	0.00000000e+00	0.00000000e+00	-0.00000000e+00	5.21660011e-06
4.32388943e-02	6.95483614e+01	1.14821174e-01	9.72498114e+04	4.68678321e-05	7.74888287e+03	2.77432879e+01	0.00000000e+00	0.00000000e+00	0.00000000e+00	-0.00000000e+00	5.21660011e-06
4.06801723e-02	6.95484818e+01	1.14863170e-01	9.72498087e+04	4.68416274e-05	7.29033189e+03	2.77433359e+01	0.00000000e+00	0.00000000e+00	0.00000000e+00	-0.00000000e+00	5.21660011e-06
3.82728663e-02	6.95485901e+01	1.14902629e-01	9.72498062e+04	4.68119457e-05	6.85891632e+03	2.77433791e+01	0.00000000e+00	0.00000000e+00	0.00000000e+00	-0.00000000e+00	5.21660011e-06
3.60080159e-02	6.95486876e+01	1.14939706e-01	9.72498038e+04	4.67782973e-05	6.45303036e+03	2.77434180e+01	0.00000000e+00	0.00000000e+00	0.00000000e+00	-0.00000000e+00	5.21660011e-06
3.38771912e-02	6.95487756e+01	1.14974543e-01	9.72498016e+04	4.67401201e-05	6.07116326e+03	2.77434531e+01	0.00000000e+00	0.00000000e+00	0.00000000e+00	-0.00000000e+00	5.21660011e-06
3.18724610e-02	6.95488550e+01	1.15007230e-01	9.72497995e+04	4.66967997e-05	5.71189368e+03	2.77434847e+01	0.00000000e+00	0.00000000e+00	0.00000000e+00	-0.00000000e+00	5.21660011e-06
2.99863635e-02	6.95489280e+01	1.15037916e-01	9.72497974e+04	4.66475368e-05	5.37388437e+03	2.77435139e+01	0.00000000e+00	0.00000000e+00	0.00000000e+00	-0.00000000e+00	5.21660011e-06
2.82118784e-02	6.95489929e+01	1.15065753e-01	9.72497953e+04	4.65878923e-05	5.05587723e+03	2.77435397e+01	0.00000000e+00	0.00000000e+00	0.00000000e+00	-0.00000000e+00	5.21660011e-06
2.65424009e-02	6.95490407e+01	1.15090993e-01	9.72497918e+04	4.65248952e-05	4.75668860e+03	2.77435588e+01	0.00000000e+00	0.00000000e+00	0.00000000e+00	-0.00000000e+00	5.21660011e-06
2.49717171e-02	6.95494923e+01	1.15097370e-01	9.72497871e+04	4.69466035e-05	4.47520488e+03	2.77437390e+01	0.00000000e+00	0.00000000e+00	0.00000000e+00	-0.00000000e+00	5.21660011e-06
2.34939806e-02	6.95516546e+01	1.15132532e-01	9.72497375e+04	6.62009364e-05	4.21037833e+03	2.77446015e+01	0.00000000e+00	0.00000000e+00	0.00000000e+00	-0.00000000e+00	5.21660011e-06
2.21036912e-02	6.95197908e+01	1.14589674e-01	9.72497418e+04	2.91495152e-04	3.96122326e+03	2.77318909e+01	0.00000000e+00	0.00000000e+00	0.00000000e+00	-0.00000000e+00	5.21660011e-06
2.07956742e-02	6.93523490e+01	1.12192707e-01	9.72498187e+04	8.62818752e-04	3.72681231e+03	2.76650973e+01	0.00000000e+00	0.00000000e+00	0.00000000e+00	-0.00000000e+00	5.21660011e-06
1.95650608e-02	6.90406076e+01	1.07949675e-01	9.72498042e+04	1.37433376e-03	3.50627293e+03	2.75407416e+01	0.00000000e+00	0.00000000e+00	0.00000000e+00	-0.00000000e+00	5.21660011e-06
1.84072706e-02	6.86234294e+01	1.02650245e-01	9.72498022e+04	1.81487309e-03	3.29878426e+03	2.73743266e+01	0.00000000e+00	0.00000000e+00	0.00000000e+00	-0.00000000e+00	5.21660011e-06
1.73179943e-02	6.81271373e+01	9.67132387e-02	9.72497941e+04	2.19807190e-03	3.10357403e+03	2.71763524e+01	0.00000000e+00	0.00000000e+00	0.00000000e+00	-0.00000000e+00	5.21660011e-06
1.62931774e-02	6.75738816e+01	9.05053081e-02	9.72497875e+04	2.52924830e-03	2.91991563e+03	2.69556552e+01	0.00000000e+00	0.00000000e+00	0.00000000e+00	-0.00000000e+00	5.21660011e-06
1.53290055e-02	6.69808834e+01	8.42655185e-02	9.72497814e+04	2.81228511e-03	2.74712548e+03	2.67191044e+01	0.00000000e+00	0.00000000e+00	0.00000000e+00	-0.00000000e+00	5.21660011e-06
1.44218897e-02	6.63613014e+01	7.81562989e-02	9.72497757e+04	3.05085872e-03	2.58456040e+03	2.64719492e+01	0.00000000e+00	0.00000000e+00	0.00000000e+00	-0.00000000e+00	5.21660011e-06
1.35684537e-02	6.57251310e+01	7.22811418e-02	9.72497705e+04	3.24860608e-03	2.43161533e+03	2.62181767e+01	0.00000000e+00	0.00000000e+00	0.00000000e+00	-0.00000000e+00	5.21660011e-06
1.27655210e-02	6.50799361e+01	6.67027706e-02	9.72497656e+04	3.40909619e-03	2.28772101e+03	2.59608043e+01	0.00000000e+00	0.00000000e+00	0.00000000e+00	-0.00000000e+00	5.21660011e-06
1.20101028e-02	6.44314195e+01	6.14553323e-02	9.72497609e+04	3.53577676e-03	2.15234180e+03	2.57021069e+01	0.00000000e+00	0.00000000e+00	0.00000000e+00	-0.00000000e+00	5.21660011e-06
1.12993876e-02	6.37838618e+01	5.65533589e-02	9.72497564e+04	3.63193260e-03	2.02497387e+03	2.54437920e+01	0.00000000e+00	0.00000000e+00	0.00000000e+00	-0.00000000e+00	5.21660011e-06
1.06307299e-02	6.31404470e+01	5.19980516e-02	9.72497520e+04	3.70066864e-03	1.90514309e+03	2.51871297e+01	0.00000000e+00	0.00000000e+00	0.00000000e+00	-0.00000000e+00	5.21660011e-06
1.00016409e-02	6.25035134e+01	4.77817636e-02	9.72497478e+04	3.74482260e-03	1.79240346e+03	2.49330528e+01	0.00000000e+00	0.00000000e+00	0.00000000e+00	-0.00000000e+00	5.21660011e-06
9.40977901e-03	6.18747477e+01	4.38911507e-02	9.72497437e+04	3.76710819e-03	1.68633534e+03	2.46822341e+01	0.00000000e+00	0.00000000e+00	0.00000000e+00	-0.00000000e+00	5.21660011e-06
8.85294137e-03	6.12553387e+01	4.03094226e-02	9.72497398e+04	3.77002368e-03	1.58654394e+03	2.44351479e+01	0.00000000e+00	0.00000000e+00	0.00000000e+00	-0.00000000e+00	5.21660011e-06
8.32905531e-03	6.06460900e+01	3.70179312e-02	9.72497361e+04	3.75586099e-03	1.49265783e+03	2.41921146e+01	0.00000000e+00	0.00000000e+00	0.00000000e+00	-0.00000000e+00	5.21660011e-06
7.83617088e-03	6.00475068e+01	3.39972376e-02	9.72497325e+04	3.72671699e-03	1.40432754e+03	2.39533359e+01	0.00000000e+00	0.00000000e+00	0.00000000e+00	-0.00000000e+00	5.21660011e-06
7.37245350e-03	5.94598636e+01	3.12278370e-02	9.72497291e+04	3.68450699e-03	1.32122432e+03	2.37189213e+01	0.00000000e+00	0.00000000e+00	0.00000000e+00	-0.00000000e+00	5.21660011e-06
6.93617719e-03	5.88832584e+01	2.86906649e-02	9.72497258e+04	3.63098864e-03	1.24303883e+03	2.34889098e+01	0.00000000e+00	0.00000000e+00	0.00000000e+00	-0.00000000e+00	5.21660011e-06
6.52571806e-03	5.83176541e+01	2.63674290e-02	9.72497227e+04	3.56775385e-03	1.16948006e+03	2.32632866e+01	0.00000000e+00	0.00000000e+00	0.00000000e+00	-0.00000000e+00	5.21660011e-06
6.13954835e-03	5.77629106e+01	2.42407813e-02	9.72497197e+04	3.49623993e-03	1.10027423e+03	2.30419959e+01	0.00000000e+00	0.00000000e+00	0.00000000e+00	-0.00000000e+00	5.21660011e-06
5.77623069e-03	5.72188088e+01	2.22944140e-02	9.72497169e+04	3.41774740e-03	1.03516373e+03	2.28249502e+01	0.00000000e+00	0.00000000e+00	0.00000000e+00	-0.00000000e+00	5.21660011e-06
5.43441278e-03	5.66850709e+01	2.05131127e-02	9.72497143e+04	3.33345091e-03	9.73906219e+02	2.26120387e+01	0.00000000e+00	0.00000000e+00	0.00000000e+00	-0.00000000e+00	5.21660011e-06
5.11282232e-03	5.61613756e+01	1.88827633e-02	9.72497117e+04	3.24440933e-03	9.16273691e+02	2.24031333e+01	0.00000000e+00	0.00000000e+00	0.00000000e+00	-0.00000000e+00	5.21660011e-06
4.81026234e-03	5.56473709e+01	1.73903305e-02	9.72497094e+04	3.15157523e-03	8.62051633e+02	2.21980935e+01	0.00000000e+00	0.00000000e+00	0.00000000e+00	-0.00000000e+00	5.21660011e-06
4.52560666e-03	5.51426833e+01	1.60238174e-02	9.72497071e+04	3.05580376e-03	8.11038221e+02	2.19967704e+01	0.00000000e+00	0.00000000e+00	0.00000000e+00	-0.00000000e+00	5.21660011e-06
4.25779577e-03	5.46469258e+01	1.47722128e-02	9.72497050e+04	2.95786085e-03	7.63043580e+02	2.17990095e+01	0.00000000e+00	0.00000000e+00	0.00000000e+00	-0.00000000e+00	5.21660011e-06
4.00583285e-03	5.41597033e+01	1.36254326e-02	9.72497030e+04	2.85843083e-03	7.17889068e+02	2.16046533e+01	0.00000000e+00	0.00000000e+00	0.00000000e+00	-0.00000000e+00	5.21660011e-06
3.76878006e-03	5.36806176e+01	1.25742576e-02	9.72497012e+04	2.75812353e-03	6.75406615e+02	2.14135430e+01	0.00000000e+00	0.00000000e+00	0.00000000e+00	-0.00000000e+00	5.21660011e-06
3.54575508e-03	5.32092708e+01	1.16102707e-02	9.72496994e+04	2.65748080e-03	6.35438099e+02	2.12255197e+01	0.00000000e+00	0.00000000e+00	0.00000000e+00	-0.00000000e+00	5.21660011e-06
3.33592777e-03	5.27452684e+01	1.07257961e-02	9.72496978e+04	2.55698422e-03	5.97834749e+02	2.10404262e+01	0.00000000e+00	0.00000000e+00	0.00000000e+00	-0.00000000e+00	5.21660011e-06
3.13851714e-03	5.22882216e+01	9.91384128e-03	9.72496962e+04	2.45706266e-03	5.62456605e+02	2.08581073e+01	0.00000000e+00	0.00000000e+00	0.00000000e+00	-0.00000000e+00	5.21660011e-06
2.95278840e-03	5.18377494e+01	9.16804057e-03	9.72496948e+04	2.35809379e-03	5.29171983e+02	2.06784110e+01	0.00000000e+00	0.00000000e+00	0.00000000e+00	-0.00000000e+00	5.21660011e-06
2.77805026e-03	5.13934803e+01	8.48260236e-03	9.72496934e+04	2.26040884e-03	4.97856997e+02	2.05011892e+01	0.00000000e+00	0.00000000e+00	0.00000000e+00	-0.00000000e+00	5.21660011e-06
2.61365231e-03	5.09550528e+01	7.85225940e-03	9.72496922e+04	2.16429676e-03	4.68395086e+02	2.03262977e+01	0.00000000e+00	0.00000000e+00	0.00000000e+00	-0.00000000e+00	5.21660011e-06
2.45898266e-03	5.05221170e+01	7.27222282e-03	9.72496910e+04	2.07000805e-03	4.40676592e+02	2.01535968e+01	0.00000000e+00	0.00000000e+00	0.00000000e+00	-0.00000000e+00	5.21660011e-06
2.31346559e-03	5.00943346e+01	6.73813972e-03	9.72496899e+04	1.97775821e-03	4.14598342e+02	1.99829517e+01	0.00000000e+00	0.00000000e+00	0.00000000e+00	-0.00000000e+00	5.21660011e-06
2.17655950e-03	4.96713801e+01	6.24605399e-03	9.72496889e+04	1.88773073e-03	3.90063273e+02	1.98142324e+01	0.00000000e+00	0.00000000e+00	0.00000000e+00	-0.00000000e+00	5.21660011e-06
2.04775479e-03	4.92529409e+01	5.79237051e-03	9.72496879e+04	1.80007982e-03	3.66980060e+02	1.96473143e+01	0.00000000e+00	0.00000000e+00	0.00000000e+00	-0.00000000e+00	5.21660011e-06
1.92657204e-03	4.88387180e+01	5.37382220e-03	9.72496870e+04	1.71493283e-03	3.45262785e+02	1.94820781e+01	0.00000000e+00	0.00000000e+00	0.00000000e+00	-0.00000000e+00	5.21660011e-06
1.81256020e-03	4.84284258e+01	4.98743993e-03	9.72496862e+04	1.63239238e-03	3.24830616e+02	1.93184100e+01	0.00000000e+00	0.00000000e+00	0.00000000e+00	-0.00000000e+00	5.21660011e-06
1.70529490e-03	4.80217932e+01	4.63052502e-03	9.72496854e+04	1.55253832e-03	3.05607501e+02	1.91562016e+01	0.00000000e+00	0.00000000e+00	0.00000000e+00	-0.00000000e+00	5.21660011e-06
1.60437688e-03	4.76185627e+01	4.30062409e-03	9.72496847e+04	1.47542953e-03	2.87521888e+02	1.89953504e+01	0.00000000e+00	0.00000000e+00	0.00000000e+00	-0.00000000e+00	5.21660011e-06
1.50943053e-03	4.72184914e+01	3.99550617e-03	9.72496840e+04	1.40110556e-03	2.70506463e+02	1.88357593e+01	0.00000000e+00	0.00000000e+00	0.00000000e+00	-0.00000000e+00	5.21660011e-06
1.42010244e-03	4.68213502e+01	3.71314183e-03	9.72496834e+04	1.32958824e-03	2.54497892e+02	1.86773372e+01	0.00000000e+00	0.00000000e+00	0.00000000e+00	-0.00000000e+00	5.21660011e-06
1.33606012e-03	4.64269243e+01	3.45168411e-03	9.72496828e+04	1.26088318e-03	2.39436589e+02	1.85199981e+01	0.00000000e+00	0.00000000e+00	0.00000000e+00	-0.00000000e+00	5.21660011e-06
1.25699076e-03	4.60350124e+01	3.20945131e-03	9.72496823e+04	1.19498122e-03	2.25266495e+02	1.83636620e+01	0.00000000e+00	0.00000000e+00	0.00000000e+00	-0.00000000e+00	5.21660011e-06
1.18260006e-03	4.56454268e+01	2.98491123e-03	9.72496818e+04	1.13185991e-03	2.11934868e+02	1.82082538e+01	0.00000000e+00	0.00000000e+00	0.00000000e+00	-0.00000000e+00	5.21660011e-06
1.11261111e-03	4.52579926e+01	2.77666693e-03	9.72496813e+04	1.07148491e-03	1.99392082e+02	1.80537038e+01	0.00000000e+00	0.00000000e+00	0.00000000e+00	-0.00000000e+00	5.21660011e-06
1.04676342e-03	4.48725474e+01	2.58344388e-03	9.72496809e+04	1.01381139e-03	1.87591456e+02	1.78999472e+01	0.00000000e+00	0.00000000e+00	0.00000000e+00	-0.00000000e+00	5.21660011e-06
9.84811900e-04	4.44889407e+01	2.40407819e-03	9.72496805e+04	9.58785364e-04	1.76489066e+02	1.77469241e+01	0.00000000e+00	0.00000000e+00	0.00000000e+00	-0.00000000e+00	5.21660011e-06
9.26525952e-04	4.41070328e+01	2.23750613e-03	9.72496801e+04	9.06344999e-04	1.66043586e+02	1.75945786e+01	0.00000000e+00	0.00000000e+00	0.00000000e+00	-0.00000000e+00	5.21660011e-06
8.71688631e-04	4.37266945e+01	2.08275456e-03	9.72496797e+04	8.56421894e-04	1.56216138e+02	1.74428592e+01	0.00000000e+00	0.00000000e+00	0.00000000e+00	-0.00000000e+00	5.21660011e-06
8.20095829e-04	4.33478056e+01	1.93893239e-03	9.72496794e+04	8.08942250e-04	1.46970144e+02	1.72917180e+01	0.00000000e+00	0.00000000e+00	0.00000000e+00	-0.00000000e+00	5.21660011e-06
7.71555510e-04	4.29702545e+01	1.80522276e-03	9.72496791e+04	7.63827994e-04	1.38271188e+02	1.71411104e+01	0.00000000e+00	0.00000000e+00	0.00000000e+00	-0.00000000e+00	5.21660011e-06
7.25887002e-04	4.25939363e+01	1.68087615e-03	9.72496788e+04	7.20997808e-04	1.30086892e+02	1.69909947e+01	0.00000000e+00	0.00000000e+00	0.00000000e+00	-0.00000000e+00	5.21660011e-06
6.82920324e-04	4.22187525e+01	1.56520409e-03	9.72496785e+04	6.80368078e-04	1.22386793e+02	1.68413314e+01	0.00000000e+00	0.00000000e+00	0.00000000e+00	-0.00000000e+00	5.21660011e-06
6.42495547e-04	4.18446089e+01	1.45757352e-03	9.72496783e+04	6.41853744e-04	1.15142231e+02	1.66920831e+01	0.00000000e+00	0.00000000e+00	0.00000000e+00	-0.00000000e+00	5.21660011e-06
6.04462207e-04	4.14714143e+01	1.35740174e-03	9.72496781e+04	6.05369064e-04	1.08326240e+02	1.65432134e+01	0.00000000e+00	0.00000000e+00	0.00000000e+00	-0.00000000e+00	5.21660011e-06
5.68678739e-04	4.10990790e+01	1.26415185e-03	9.72496778e+04	5.70828282e-04	1.01913451e+02	1.63946865e+01	0.00000000e+00	0.00000000e+00	0.00000000e+00	-0.00000000e+00	5.21660011e-06
5.35011954e-04	4.07275127e+01	1.17732866e-03	9.72496776e+04	5.38146213e-04	9.58799949e+01	1.62464663e+01	0.00000000e+00	0.00000000e+00	0.00000000e+00	-0.00000000e+00	5.21660011e-06
5.03336541e-04	4.03566226e+01	1.09647499e-03	9.72496774e+04	5.07238735e-04	9.02034143e+01	1.60985158e+01	0.00000000e+00	0.00000000e+00	0.00000000e+00	-0.00000000e+00	5.21660011e-06
4.73534599e-04	3.99863108e+01	1.02116841e-03	9.72496773e+04	4.78023213e-04	8.48625803e+01	1.59507961e+01	0.00000000e+00	0.00000000e+00	0.00000000e+00	-0.00000000e+00	5.21660011e-06
4.45495204e-04	3.96164718e+01	9.51018174e-04	9.72496771e+04	4.50418842e-04	7.98376140e+01	1.58032649e+01	0.00000000e+00	0.00000000e+00	0.00000000e+00	-0.00000000e+00	5.21660011e-06
4.19113989e-04	3.92469890e+01	8.85662575e-04	9.72496770e+04	4.24346927e-04	7.51098117e+01	1.56558759e+01	0.00000000e+00	0.00000000e+00	0.00000000e+00	-0.00000000e+00	5.21660011e-06
3.94292761e-04	3.88777315e+01	8.24766502e-04	9.72496768e+04	3.99731102e-04	7.06615761e+01	1.55085767e+01	0.00000000e+00	0.00000000e+00	0.00000000e+00	-0.00000000e+00	5.21660011e-06
3.70939133e-04	3.85085496e+01	7.68019226e-04	9.72496767e+04	3.76497500e-04	6.64763505e+01	1.53613077e+01	0.00000000e+00	0.00000000e+00	0.00000000e+00	-0.00000000e+00	5.21660011e-06
3.48966179e-04	3.81392701e+01	7.15132413e-04	9.72496765e+04	3.54574882e-04	6.25385568e+01	1.52139997e+01	0.00000000e+00	0.00000000e+00	0.00000000e+00	-0.00000000e+00	5.21660011e-06
3.28292114e-04	3.77696904e+01	6.65838309e-04	9.72496764e+04	3.33894715e-04	5.88335381e+01	1.50665720e+01	0.00000000e+00	0.00000000e+00	0.00000000e+00	-0.00000000e+00	5.21660011e-06
3.08839988e-04	3.73995720e+01	6.19888097e-04	9.72496763e+04	3.14391219e-04	5.53475044e+01	1.49189294e+01	0.00000000e+00	0.00000000e+00	0.00000000e+00	-0.00000000e+00	5.21660011e-06
2.90537397e-04	3.70286326e+01	5.77050398e-04	9.72496762e+04	2.96001373e-04	5.20674798e+01	1.47709592e+01	0.00000000e+00	0.00000000e+00	0.00000000e+00	-0.00000000e+00	5.21660011e-06
2.73316217e-04	3.66565371e+01	5.37109901e-04	9.72496761e+04	2.78664913e-04	4.89812560e+01	1.46225280e+01	0.00000000e+00	0.00000000e+00	0.00000000e+00	-0.00000000e+00	5.21660011e-06
2.57112349e-04	3.62828869e+01	4.99866118e-04	9.72496760e+04	2.62324302e-04	4.60773456e+01	1.44734765e+01	0.00000000e+00	0.00000000e+00	0.00000000e+00	-0.00000000e+00	5.21660011e-06
2.41865480e-04	3.59072078e+01	4.65132236e-04	9.72496759e+04	2.46924683e-04	4.33449399e+01	1.43236157e+01	0.00000000e+00	0.00000000e+00	0.00000000e+00	-0.00000000e+00	5.21660011e-06
2.27518861e-04	3.55289353e+01	4.32734078e-04	9.72496759e+04	2.32413817e-04	4.07738688e+01	1.41727204e+01	0.00000000e+00	0.00000000e+00	0.00000000e+00	-0.00000000e+00	5.21660011e-06
2.14019091e-04	3.51473985e+01	4.02509135e-04	9.72496758e+04	2.18742017e-04	3.83545623e+01	1.40205229e+01	0.00000000e+00	0.00000000e+00	0.00000000e+00	-0.00000000e+00	5.21660011e-06
2.01315922e-04	3.47618008e+01	3.74305694e-04	9.72496757e+04	2.05862063e-04	3.60780155e+01	1.38667055e+01	0.00000000e+00	0.00000000e+00	0.00000000e+00	-0.00000000e+00	5.21660011e-06
1.89362073e-04	3.43711989e+01	3.47982025e-04	9.72496756e+04	1.93729119e-04	3.39357550e+01	1.37108919e+01	0.00000000e+00	0.00000000e+00	0.00000000e+00	-0.00000000e+00	5.21660011e-06
1.78113050e-04	3.39744781e+01	3.23405648e-04	9.72496756e+04	1.82300643e-04	3.19198070e+01	1.35526374e+01	0.00000000e+00	0.00000000e+00	0.00000000e+00	-0.00000000e+00	5.21660011e-06
1.67526982e-04	3.35703265e+01	3.00452661e-04	9.72496755e+04	1.71536294e-04	3.00226678e+01	1.33914188e+01	0.00000000e+00	0.00000000e+00	0.00000000e+00	-0.00000000e+00	5.21660011e-06
1.57564468e-04	3.31572059e+01	2.79007133e-04	9.72496754e+04	1.61397838e-04	2.82372763e+01	1.32266223e+01	0.00000000e+00	0.00000000e+00	0.00000000e+00	-0.00000000e+00	5.21660011e-06
1.48188425e-04	3.27333222e+01	2.58960563e-04	9.72496754e+04	1.51849056e-04	2.65569869e+01	1.30575324e+01	0.00000000e+00	0.00000000e+00	0.00000000e+00	-0.00000000e+00	5.21660011e-06
1.39363955e-04	3.22965959e+01	2.40211411e-04	9.72496753e+04	1.42855652e-04	2.49755453e+01	1.28833195e+01	0.00000000e+00	0.00000000e+00	0.00000000e+00	-0.00000000e+00	5.21660011e-06
1.31058213e-04	3.18446362e+01	2.22664695e-04	9.72496753e+04	1.34385169e-04	2.34870655e+01	1.27030298e+01	0.00000000e+00	0.00000000e+00	0.00000000e+00	-0.00000000e+00	5.21660011e-06
1.23240283e-04	3.13747206e+01	2.06231678e-04	9.72496752e+04	1.26406899e-04	2.20860069e+01	1.25155775e+01	0.00000000e+00	0.00000000e+00	0.00000000e+00	-0.00000000e+00	5.21660011e-06
1.15881067e-04	3.08837883e+01	1.90829643e-04	9.72496752e+04	1.18891816e-04	2.07671549e+01	1.23197414e+01	0.00000000e+00	0.00000000e+00	0.00000000e+00	-0.00000000e+00	5.21660011e-06
1.08953172e-04	3.03684526e+01	1.76381768e-04	9.72496752e+04	1.11812500e-04	1.95256003e+01	1.21141707e+01	0.00000000e+00	0.00000000e+00	0.00000000e+00	-0.00000000e+00	5.21660011e-06
1.02430813e-04	2.98250442e+01	1.62817125e-04	9.72496751e+04	1.05143077e-04	1.83567222e+01	1.18974016e+01	0.00000000e+00	0.00000000e+00	0.00000000e+00	-0.00000000e+00	5.21660011e-06
9.62897123e-05	2.92496962e+01	1.50070783e-04	9.72496751e+04	9.88591684e-05	1.72561698e+01	1.16678916e+01	0.00000000e+00	0.00000000e+00	0.00000000e+00	-0.00000000e+00	5.21660011e-06
9.05070119e-05	2.86384855e+01	1.38084038e-04	9.72496751e+04	9.29378384e-05	1.62198466e+01	1.14240757e+01	0.00000000e+00	0.00000000e+00	0.00000000e+00	-0.00000000e+00	5.21660011e-06
8.50611882e-05	2.79876402e+01	1.26804724e-04	9.72496750e+04	8.73575501e-05	1.52438954e+01	1.11644494e+01	0.00000000e+00	0.00000000e+00	0.00000000e+00	-0.00000000e+00	5.21660011e-06
7.99319713e-05	2.72938213e+01	1.16187563e-04	9.72496750e+04	8.20981149e-05	1.43246837e+01	1.08876805e+01	0.00000000e+00	0.00000000e+00	0.00000000e+00	-0.00000000e+00	5.21660011e-06
7.51002697e-05	2.65544703e+01	1.06194453e-04	9.72496750e+04	7.71406308e-05	1.34587899e+01	1.05927487e+01	0.00000000e+00	0.00000000e+00	0.00000000e+00	-0.00000000e+00	5.21660011e-06
7.05480993e-05	2.57681999e+01	9.67945656e-05	9.72496750e+04	7.24674011e-05	1.26429911e+01	1.02791004e+01	0.00000000e+00	0.00000000e+00	0.00000000e+00	-0.00000000e+00	5.21660011e-06
6.62585164e-05	2.49351778e+01	8.79641137e-05	9.72496750e+04	6.80618303e-05	1.18742510e+01	9.94680250e+00	0.00000000e+00	0.00000000e+00	0.00000000e+00	-0.00000000e+00	5.21660011e-06
6.22155547e-05	2.40574366e+01	7.96856269e-05	9.72496749e+04	6.39082983e-05	1.11497080e+01	9.59666592e+00	0.00000000e+00	0.00000000e+00	0.00000000e+00	-0.00000000e+00	5.21660011e-06
5.84041659e-05	2.31390304e+01	7.19466884e-05	9.72496749e+04	5.99920251e-05	1.04666654e+01	9.23030776e+00	0.00000000e+00	0.00000000e+00	0.00000000e+00	-0.00000000e+00	5.21660011e-06
5.48101637e-05	2.21859750e+01	6.47381722e-05	9.72496749e+04	5.62989453e-05	9.82258092e+00	8.85012786e+00	0.00000000e+00	0.00000000e+00	0.00000000e+00	-0.00000000e+00	5.21660011e-06
5.14201707e-05	2.12059488e+01	5.80521796e-05	9.72496749e+04	5.28156108e-05	9.21505709e+00	8.45918912e+00	0.00000000e+00	0.00000000e+00	0.00000000e+00	-0.00000000e+00	5.21660011e-06
4.82215690e-05	2.02077836e+01	5.18799822e-05	9.72496749e+04	4.95291315e-05	8.64183268e+00	8.06101463e+00	0.00000000e+00	0.00000000e+00	0.00000000e+00	-0.00000000e+00	5.21660011e-06
4.52024532e-05	1.92008302e+01	4.62102872e-05	9.72496749e+04	4.64271522e-05	8.10077410e+00	7.65933444e+00	0.00000000e+00	0.00000000e+00	0.00000000e+00	-0.00000000e+00	5.21660011e-06
4.23515857e-05	1.81943068e+01	4.10281288e-05	9.72496749e+04	4.34978843e-05	7.58986746e+00	7.25782581e+00	0.00000000e+00	0.00000000e+00	0.00000000e+00	-0.00000000e+00	5.21660011e-06