#Flat plate skin friction results using CFL3D on 545x385, postprocessed
VARIABLES = "cf","retheta"
ZONE T="SA"
 3.035763977E-03 3.955332764E+03
 3.032337641E-03 3.980832031E+03
 3.028913401E-03 4.006544434E+03
 3.025488928E-03 4.032445801E+03
 3.022067249E-03 4.058534180E+03
 3.018644406E-03 4.084805664E+03
 3.015222959E-03 4.111324219E+03
 3.011802211E-03 4.138047363E+03
 3.008380765E-03 4.164982422E+03
 3.004960483E-03 4.192100098E+03
 3.001540899E-03 4.219456543E+03
 2.998120384E-03 4.247052246E+03
 2.994698705E-03 4.274867676E+03
 2.991277725E-03 4.302897949E+03
 2.987856744E-03 4.331141113E+03
 2.984433901E-03 4.359660156E+03
 2.981011057E-03 4.388414551E+03
 2.977587283E-03 4.417403320E+03
 2.974161645E-03 4.446600586E+03
 2.970735077E-03 4.476100586E+03
 2.967307577E-03 4.505850098E+03
 2.963878214E-03 4.535851074E+03
 2.960447222E-03 4.566091797E+03
 2.957015065E-03 4.596606934E+03
 2.953581046E-03 4.627414062E+03
 2.950144233E-03 4.658496094E+03
 2.946705092E-03 4.689843262E+03
 2.943263855E-03 4.721448242E+03
 2.939820755E-03 4.753389648E+03
 2.936374163E-03 4.785626465E+03
 2.932925010E-03 4.818134766E+03
 2.929472597E-03 4.850917480E+03
 2.926017391E-03 4.884058105E+03
 2.922559157E-03 4.917519531E+03
 2.919096965E-03 4.951276367E+03
 2.915631281E-03 4.985324707E+03
 2.912162337E-03 5.019737793E+03
 2.908688737E-03 5.054508789E+03
 2.905211644E-03 5.089601074E+03
 2.901730593E-03 5.125006348E+03
 2.898244653E-03 5.160792969E+03
 2.894754522E-03 5.196946289E+03
 2.891259501E-03 5.233468750E+03
 2.887759358E-03 5.270333984E+03
 2.884254791E-03 5.307568848E+03
 2.880744170E-03 5.345232910E+03
 2.877228893E-03 5.383274414E+03
 2.873708261E-03 5.421693359E+03
 2.870180644E-03 5.460507324E+03
 2.866648370E-03 5.499774902E+03
 2.863109577E-03 5.539463379E+03
 2.859564265E-03 5.579542969E+03
 2.856012667E-03 5.620055664E+03
 2.852454549E-03 5.661055176E+03
 2.848890144E-03 5.702500488E+03
 2.845317824E-03 5.744368164E+03
 2.841738984E-03 5.786724121E+03
 2.838152461E-03 5.829576172E+03
 2.834558254E-03 5.872922852E+03
 2.830956364E-03 5.916726074E+03
 2.827346092E-03 5.961048340E+03
 2.823728602E-03 6.005916504E+03
 2.820102731E-03 6.051318848E+03
 2.816466847E-03 6.097186035E+03
 2.812823979E-03 6.143664551E+03
 2.809170634E-03 6.190709961E+03
 2.805508208E-03 6.238318848E+03
 2.801836701E-03 6.286450684E+03
 2.798155881E-03 6.335239746E+03
 2.794464584E-03 6.384659668E+03
 2.790763043E-03 6.434645020E+03
 2.787051722E-03 6.485239746E+03
 2.783329692E-03 6.536562012E+03
 2.779596718E-03 6.588515137E+03
 2.775852336E-03 6.641102539E+03
 2.772097243E-03 6.694395996E+03
 2.768329810E-03 6.748436035E+03
 2.764550969E-03 6.803174805E+03
 2.760759788E-03 6.858585449E+03
 2.756956499E-03 6.914833008E+03
 2.753140172E-03 6.971844727E+03
 2.749311505E-03 7.029593750E+03
 2.745469566E-03 7.088143555E+03
 2.741613192E-03 7.147580566E+03
 2.737743780E-03 7.207819336E+03
 2.733860863E-03 7.268866211E+03
 2.729962114E-03 7.330894531E+03
 2.726049628E-03 7.393805664E+03
 2.722121775E-03 7.457549805E+03
 2.718178555E-03 7.522332031E+03
 2.714219037E-03 7.588102539E+03
 2.710242523E-03 7.654790527E+03
 2.706249710E-03 7.722497070E+03
 2.702244325E-03 7.791337402E+03
 2.698234050E-03 7.861274414E+03
 2.694189548E-03 7.932293945E+03
 2.690119203E-03 8.004130371E+03
 2.686106134E-03 8.076034180E+03
 2.682153368E-03 8.147773926E+03
 2.678239485E-03 8.219524414E+03
 2.674374264E-03 8.291161133E+03
 2.670553280E-03 8.362600586E+03
 2.666778164E-03 8.434019531E+03
 2.663047053E-03 8.505354492E+03
 2.659359481E-03 8.576525391E+03
 2.655714750E-03 8.647583008E+03
 2.652111463E-03 8.718592773E+03
 2.648550319E-03 8.789475586E+03
 2.645028988E-03 8.860192383E+03
 2.641547006E-03 8.930918945E+03
 2.638104837E-03 9.001524414E+03
 2.634700621E-03 9.072001953E+03
 2.631333657E-03 9.142316406E+03
 2.628003946E-03 9.212656250E+03
 2.624709625E-03 9.282870117E+03
 2.621451626E-03 9.352936523E+03
 2.618227853E-03 9.422916016E+03
 2.615038771E-03 9.492872070E+03
 2.611883450E-03 9.562706055E+03
 2.608760726E-03 9.632410156E+03
 2.605670830E-03 9.702013672E+03
 2.602612367E-03 9.771616211E+03
 2.599586267E-03 9.841108398E+03
 2.596589737E-03 9.910445312E+03
 2.593623707E-03 9.979712891E+03
 2.590687713E-03 1.004895215E+04
 2.587781288E-03 1.011810352E+04
 2.584903268E-03 1.018713574E+04
 2.582053421E-03 1.025603809E+04
 2.579231746E-03 1.032494629E+04
 2.576436847E-03 1.039376855E+04
 2.573669190E-03 1.046248340E+04
 2.570928540E-03 1.053104297E+04
 2.568213269E-03 1.059961035E+04
 2.565523842E-03 1.066811621E+04
 2.562859561E-03 1.073652539E+04
 2.560220193E-03 1.080481445E+04
 2.557605738E-03 1.087301172E+04
 2.555014798E-03 1.094119238E+04
 2.552447608E-03 1.100931055E+04
 2.549904864E-03 1.107731641E+04
 2.547384007E-03 1.114517578E+04
 2.544886200E-03 1.121305664E+04
 2.542410744E-03 1.128086035E+04
 2.539958339E-03 1.134857617E+04
 2.537526656E-03 1.141619531E+04
 2.535116859E-03 1.148370703E+04
 2.532728715E-03 1.155122266E+04
 2.530360827E-03 1.161868555E+04
 2.528013894E-03 1.168603613E+04
 2.525687218E-03 1.175329297E+04
 2.523381496E-03 1.182042480E+04
 2.521095099E-03 1.188758984E+04
 2.518828493E-03 1.195466309E+04
 2.516582143E-03 1.202167578E+04
 2.514354652E-03 1.208859961E+04
 2.512146719E-03 1.215539844E+04
 2.509958344E-03 1.222216406E+04
 2.507788129E-03 1.228891504E+04
 2.505637240E-03 1.235556055E+04
 2.503504977E-03 1.242213281E+04
 2.501391806E-03 1.248858984E+04
 2.499297727E-03 1.255496094E+04
 2.497222507E-03 1.262134863E+04
 2.495165216E-03 1.268763184E+04
 2.493127482E-03 1.275384375E+04
 2.491109073E-03 1.281995801E+04
 2.489109989E-03 1.288591797E+04
 2.487130463E-03 1.295191016E+04
 2.485171892E-03 1.301782422E+04
 2.483233577E-03 1.308364746E+04
 2.481316449E-03 1.314935352E+04
 2.479422372E-03 1.321493848E+04
 2.477551810E-03 1.328034668E+04
 2.475706395E-03 1.334578613E+04
 2.473888220E-03 1.341107910E+04
 2.472100547E-03 1.347623535E+04
 2.470345469E-03 1.354123730E+04
 2.468627878E-03 1.360602930E+04
 2.466953127E-03 1.367049902E+04
 2.465327270E-03 1.373481738E+04
 2.463758457E-03 1.379884668E+04
 2.462267643E-03 1.386242188E+04
 2.460891381E-03 1.392533789E+04
 2.459720941E-03 1.398756152E+04
 2.458691131E-03 1.404960254E+04
