VARIABLES ="X" "Y" "Z" "rho" "press" "temp" "tau_wall" "qdot" "yplus" "muLam"
Zone T ="wall" I = 224 , F = point
1.25611447e-01	-1.11022302e-16	5.00000000e-01	1.12153505e+00	9.72575263e+04	3.02153931e+02	1.00319043e+01	9.42301053e+04	1.06968985e-01	1.56860000e-05
1.28352543e-01	-1.11022302e-16	5.00000000e-01	1.12153290e+00	9.72574366e+04	3.02154231e+02	9.99924233e+00	9.42432149e+04	1.06794606e-01	1.56860000e-05
1.31115223e-01	-1.11022302e-16	5.00000000e-01	1.12153080e+00	9.72573483e+04	3.02154524e+02	9.96708622e+00	9.42560335e+04	1.06622650e-01	1.56860000e-05
1.33899892e-01	-1.11022302e-16	5.00000000e-01	1.12152873e+00	9.72572614e+04	3.02154810e+02	9.93541819e+00	9.42685787e+04	1.06453033e-01	1.56860000e-05
1.36706965e-01	-1.11022302e-16	5.00000000e-01	1.12152670e+00	9.72571758e+04	3.02155091e+02	9.90422204e+00	9.42808533e+04	1.06285680e-01	1.56860000e-05
1.39536866e-01	-1.11022302e-16	5.00000000e-01	1.12152471e+00	9.72570914e+04	3.02155366e+02	9.87348129e+00	9.42928690e+04	1.06120512e-01	1.56860000e-05
1.42390030e-01	-1.11022302e-16	5.00000000e-01	1.12152275e+00	9.72570082e+04	3.02155635e+02	9.84317980e+00	9.43046395e+04	1.05957454e-01	1.56860000e-05
1.45266899e-01	-1.11022302e-16	5.00000000e-01	1.12152083e+00	9.72569261e+04	3.02155898e+02	9.81330293e+00	9.43161721e+04	1.05796435e-01	1.56860000e-05
1.48167926e-01	-1.11022302e-16	5.00000000e-01	1.12151893e+00	9.72568452e+04	3.02156157e+02	9.78383668e+00	9.43274763e+04	1.05637390e-01	1.56860000e-05
1.51093575e-01	-1.11022302e-16	5.00000000e-01	1.12151707e+00	9.72567654e+04	3.02156410e+02	9.75476702e+00	9.43385616e+04	1.05480251e-01	1.56860000e-05
1.54044321e-01	-1.11022302e-16	5.00000000e-01	1.12151524e+00	9.72566865e+04	3.02156659e+02	9.72608056e+00	9.43494340e+04	1.05324955e-01	1.56860000e-05
1.57020647e-01	-1.11022302e-16	5.00000000e-01	1.12151344e+00	9.72566087e+04	3.02156902e+02	9.69776469e+00	9.43601024e+04	1.05171441e-01	1.56860000e-05
1.60023049e-01	-1.11022302e-16	5.00000000e-01	1.12151166e+00	9.72565318e+04	3.02157142e+02	9.66980750e+00	9.43705776e+04	1.05019651e-01	1.56860000e-05
1.63052037e-01	-1.11022302e-16	5.00000000e-01	1.12150992e+00	9.72564559e+04	3.02157377e+02	9.64219736e+00	9.43808634e+04	1.04869532e-01	1.56860000e-05
1.66108129e-01	-1.11022302e-16	5.00000000e-01	1.12150819e+00	9.72563808e+04	3.02157608e+02	9.61492266e+00	9.43909636e+04	1.04721025e-01	1.56860000e-05
1.69191857e-01	-1.11022302e-16	5.00000000e-01	1.12150649e+00	9.72563065e+04	3.02157835e+02	9.58797234e+00	9.44008896e+04	1.04574078e-01	1.56860000e-05
1.72303765e-01	-1.11022302e-16	5.00000000e-01	1.12150482e+00	9.72562332e+04	3.02158058e+02	9.56133634e+00	9.44106494e+04	1.04428642e-01	1.56860000e-05
1.75444412e-01	-1.11022302e-16	5.00000000e-01	1.12150317e+00	9.72561606e+04	3.02158277e+02	9.53500480e+00	9.44202439e+04	1.04284670e-01	1.56860000e-05
1.78614368e-01	-1.11022302e-16	5.00000000e-01	1.12150154e+00	9.72560887e+04	3.02158493e+02	9.50896747e+00	9.44296777e+04	1.04142112e-01	1.56860000e-05
1.81814219e-01	-1.11022302e-16	5.00000000e-01	1.12149993e+00	9.72560176e+04	3.02158705e+02	9.48321477e+00	9.44389612e+04	1.04000920e-01	1.56860000e-05
1.85044563e-01	-1.11022302e-16	5.00000000e-01	1.12149835e+00	9.72559472e+04	3.02158914e+02	9.45773812e+00	9.44480999e+04	1.03861053e-01	1.56860000e-05
1.88306014e-01	-1.11022302e-16	5.00000000e-01	1.12149678e+00	9.72558776e+04	3.02159119e+02	9.43252906e+00	9.44570946e+04	1.03722470e-01	1.56860000e-05
1.91599203e-01	-1.11022302e-16	5.00000000e-01	1.12149523e+00	9.72558085e+04	3.02159322e+02	9.40757877e+00	9.44659504e+04	1.03585128e-01	1.56860000e-05
1.94924774e-01	-1.11022302e-16	5.00000000e-01	1.12149370e+00	9.72557401e+04	3.02159521e+02	9.38287899e+00	9.44746750e+04	1.03448986e-01	1.56860000e-05
1.98283387e-01	-1.11022302e-16	5.00000000e-01	1.12149219e+00	9.72556724e+04	3.02159718e+02	9.35842217e+00	9.44832720e+04	1.03314007e-01	1.56860000e-05
2.01675723e-01	-1.11022302e-16	5.00000000e-01	1.12149070e+00	9.72556052e+04	3.02159911e+02	9.33420077e+00	9.44917431e+04	1.03180153e-01	1.56860000e-05
2.05102475e-01	-1.11022302e-16	5.00000000e-01	1.12148922e+00	9.72555386e+04	3.02160102e+02	9.31020712e+00	9.45000943e+04	1.03047387e-01	1.56860000e-05
2.08564358e-01	-1.11022302e-16	5.00000000e-01	1.12148776e+00	9.72554726e+04	3.02160291e+02	9.28643406e+00	9.45083305e+04	1.02915673e-01	1.56860000e-05
2.12062103e-01	-1.11022302e-16	5.00000000e-01	1.12148632e+00	9.72554071e+04	3.02160476e+02	9.26287473e+00	9.45164530e+04	1.02784978e-01	1.56860000e-05
2.15596462e-01	-1.11022302e-16	5.00000000e-01	1.12148489e+00	9.72553422e+04	3.02160659e+02	9.23952219e+00	9.45244653e+04	1.02655266e-01	1.56860000e-05
2.19168205e-01	-1.11022302e-16	5.00000000e-01	1.12148348e+00	9.72552777e+04	3.02160840e+02	9.21636983e+00	9.45323740e+04	1.02526504e-01	1.56860000e-05
2.22778123e-01	-1.11022302e-16	5.00000000e-01	1.12148208e+00	9.72552137e+04	3.02161019e+02	9.19341170e+00	9.45401824e+04	1.02398662e-01	1.56860000e-05
2.26427029e-01	-1.11022302e-16	5.00000000e-01	1.12148069e+00	9.72551502e+04	3.02161195e+02	9.17064176e+00	9.45478899e+04	1.02271712e-01	1.56860000e-05
2.30115758e-01	-1.11022302e-16	5.00000000e-01	1.12147932e+00	9.72550872e+04	3.02161369e+02	9.14805367e+00	9.45554995e+04	1.02145620e-01	1.56860000e-05
2.33845166e-01	-1.11022302e-16	5.00000000e-01	1.12147796e+00	9.72550246e+04	3.02161541e+02	9.12564148e+00	9.45630183e+04	1.02020356e-01	1.56860000e-05
2.37616134e-01	-1.11022302e-16	5.00000000e-01	1.12147661e+00	9.72549624e+04	3.02161711e+02	9.10340000e+00	9.45704500e+04	1.01895894e-01	1.56860000e-05
2.41429566e-01	-1.11022302e-16	5.00000000e-01	1.12147527e+00	9.72549006e+04	3.02161878e+02	9.08132405e+00	9.45777930e+04	1.01772208e-01	1.56860000e-05
2.45286392e-01	-1.11022302e-16	5.00000000e-01	1.12147395e+00	9.72548393e+04	3.02162044e+02	9.05940776e+00	9.45850478e+04	1.01649269e-01	1.56860000e-05
2.49187568e-01	-1.11022302e-16	5.00000000e-01	1.12147264e+00	9.72547783e+04	3.02162208e+02	9.03764536e+00	9.45922218e+04	1.01527046e-01	1.56860000e-05
2.53134076e-01	-1.11022302e-16	5.00000000e-01	1.12147134e+00	9.72547177e+04	3.02162371e+02	9.01603211e+00	9.45993203e+04	1.01405515e-01	1.56860000e-05
2.57126928e-01	-1.11022302e-16	5.00000000e-01	1.12147005e+00	9.72546574e+04	3.02162531e+02	8.99456378e+00	9.46063422e+04	1.01284655e-01	1.56860000e-05
2.61167162e-01	-1.11022302e-16	5.00000000e-01	1.12146877e+00	9.72545975e+04	3.02162690e+02	8.97323533e+00	9.46132850e+04	1.01164440e-01	1.56860000e-05
2.65255849e-01	-1.11022302e-16	5.00000000e-01	1.12146750e+00	9.72545379e+04	3.02162847e+02	8.95204120e+00	9.46201543e+04	1.01044841e-01	1.56860000e-05
2.69394088e-01	-1.11022302e-16	5.00000000e-01	1.12146624e+00	9.72544786e+04	3.02163002e+02	8.93097698e+00	9.46269574e+04	1.00925834e-01	1.56860000e-05
2.73583012e-01	-1.11022302e-16	5.00000000e-01	1.12146499e+00	9.72544197e+04	3.02163156e+02	8.91003912e+00	9.46336948e+04	1.00807403e-01	1.56860000e-05
2.77823789e-01	-1.11022302e-16	5.00000000e-01	1.12146374e+00	9.72543611e+04	3.02163309e+02	8.88922338e+00	9.46403630e+04	1.00689524e-01	1.56860000e-05
2.82117617e-01	-1.11022302e-16	5.00000000e-01	1.12146251e+00	9.72543027e+04	3.02163460e+02	8.86852455e+00	9.46469636e+04	1.00572172e-01	1.56860000e-05
2.86465736e-01	-1.11022302e-16	5.00000000e-01	1.12146129e+00	9.72542446e+04	3.02163609e+02	8.84793805e+00	9.46535048e+04	1.00455320e-01	1.56860000e-05
2.90869418e-01	-1.11022302e-16	5.00000000e-01	1.12146007e+00	9.72541869e+04	3.02163757e+02	8.82746052e+00	9.46599901e+04	1.00338952e-01	1.56860000e-05
2.95329977e-01	-1.11022302e-16	5.00000000e-01	1.12145886e+00	9.72541293e+04	3.02163904e+02	8.80708852e+00	9.46664165e+04	1.00223050e-01	1.56860000e-05
2.99848767e-01	-1.11022302e-16	5.00000000e-01	1.12145766e+00	9.72540720e+04	3.02164050e+02	8.78681752e+00	9.46727818e+04	1.00107590e-01	1.56860000e-05
3.04427183e-01	-1.11022302e-16	5.00000000e-01	1.12145647e+00	9.72540150e+04	3.02164194e+02	8.76664282e+00	9.46790919e+04	9.99925461e-02	1.56860000e-05
3.09066664e-01	-1.11022302e-16	5.00000000e-01	1.12145528e+00	9.72539582e+04	3.02164337e+02	8.74656087e+00	9.46853530e+04	9.98779000e-02	1.56860000e-05
3.13768693e-01	-1.11022302e-16	5.00000000e-01	1.12145410e+00	9.72539016e+04	3.02164479e+02	8.72656882e+00	9.46915651e+04	9.97636366e-02	1.56860000e-05
3.18534803e-01	-1.11022302e-16	5.00000000e-01	1.12145293e+00	9.72538452e+04	3.02164620e+02	8.70666303e+00	9.46977241e+04	9.96497363e-02	1.56860000e-05
3.23366574e-01	-1.11022302e-16	5.00000000e-01	1.12145176e+00	9.72537890e+04	3.02164759e+02	8.68683900e+00	9.47038314e+04	9.95361747e-02	1.56860000e-05
3.28265637e-01	-1.11022302e-16	5.00000000e-01	1.12145060e+00	9.72537331e+04	3.02164898e+02	8.66709284e+00	9.47098944e+04	9.94229305e-02	1.56860000e-05
3.33233677e-01	-1.11022302e-16	5.00000000e-01	1.12144945e+00	9.72536773e+04	3.02165036e+02	8.64742178e+00	9.47159162e+04	9.93099889e-02	1.56860000e-05
3.38272433e-01	-1.11022302e-16	5.00000000e-01	1.12144830e+00	9.72536218e+04	3.02165172e+02	8.62782292e+00	9.47218937e+04	9.91973342e-02	1.56860000e-05
3.43383704e-01	-1.11022302e-16	5.00000000e-01	1.12144716e+00	9.72535664e+04	3.02165308e+02	8.60829225e+00	9.47278243e+04	9.90849444e-02	1.56860000e-05
3.48569345e-01	-1.11022302e-16	5.00000000e-01	1.12144602e+00	9.72535111e+04	3.02165442e+02	8.58882551e+00	9.47337130e+04	9.89727958e-02	1.56860000e-05
3.53831277e-01	-1.11022302e-16	5.00000000e-01	1.12144489e+00	9.72534561e+04	3.02165576e+02	8.56941957e+00	9.47395661e+04	9.88608712e-02	1.56860000e-05
3.59171486e-01	-1.11022302e-16	5.00000000e-01	1.12144377e+00	9.72534012e+04	3.02165709e+02	8.55007203e+00	9.47453835e+04	9.87491573e-02	1.56860000e-05
3.64592024e-01	-1.11022302e-16	5.00000000e-01	1.12144264e+00	9.72533465e+04	3.02165841e+02	8.53077975e+00	9.47511613e+04	9.86376369e-02	1.56860000e-05
3.70095016e-01	-1.11022302e-16	5.00000000e-01	1.12144153e+00	9.72532918e+04	3.02165972e+02	8.51153872e+00	9.47568998e+04	9.85262873e-02	1.56860000e-05
3.75682661e-01	-1.11022302e-16	5.00000000e-01	1.12144042e+00	9.72532374e+04	3.02166103e+02	8.49234535e+00	9.47626054e+04	9.84150882e-02	1.56860000e-05
3.81357233e-01	-1.11022302e-16	5.00000000e-01	1.12143931e+00	9.72531831e+04	3.02166233e+02	8.47319705e+00	9.47682818e+04	9.83040253e-02	1.56860000e-05
3.87121089e-01	-1.11022302e-16	5.00000000e-01	1.12143820e+00	9.72531289e+04	3.02166362e+02	8.45409128e+00	9.47739262e+04	9.81930842e-02	1.56860000e-05
3.92976671e-01	-1.11022302e-16	5.00000000e-01	1.12143710e+00	9.72530748e+04	3.02166490e+02	8.43502444e+00	9.47795355e+04	9.80822442e-02	1.56860000e-05
3.98926508e-01	-1.11022302e-16	5.00000000e-01	1.12143601e+00	9.72530208e+04	3.02166617e+02	8.41599256e+00	9.47851136e+04	9.79714828e-02	1.56860000e-05
4.04973223e-01	-1.11022302e-16	5.00000000e-01	1.12143492e+00	9.72529670e+04	3.02166744e+02	8.39699265e+00	9.47906668e+04	9.78607826e-02	1.56860000e-05
4.11119532e-01	-1.11022302e-16	5.00000000e-01	1.12143383e+00	9.72529133e+04	3.02166871e+02	8.37802247e+00	9.47961956e+04	9.77501310e-02	1.56860000e-05
4.17368257e-01	-1.11022302e-16	5.00000000e-01	1.12143274e+00	9.72528597e+04	3.02166996e+02	8.35907919e+00	9.48016958e+04	9.76395113e-02	1.56860000e-05
4.23722322e-01	-1.11022302e-16	5.00000000e-01	1.12143166e+00	9.72528062e+04	3.02167122e+02	8.34015900e+00	9.48071670e+04	9.75289016e-02	1.56860000e-05
4.30184765e-01	-1.11022302e-16	5.00000000e-01	1.12143058e+00	9.72527527e+04	3.02167246e+02	8.32125839e+00	9.48126151e+04	9.74182813e-02	1.56860000e-05
4.36758738e-01	-1.11022302e-16	5.00000000e-01	1.12142951e+00	9.72526994e+04	3.02167370e+02	8.30237479e+00	9.48180441e+04	9.73076352e-02	1.56860000e-05
4.43447516e-01	-1.11022302e-16	5.00000000e-01	1.12142844e+00	9.72526462e+04	3.02167494e+02	8.28350570e+00	9.48234513e+04	9.71969486e-02	1.56860000e-05
4.50254503e-01	-1.11022302e-16	5.00000000e-01	1.12142737e+00	9.72525930e+04	3.02167617e+02	8.26464769e+00	9.48288336e+04	9.70862013e-02	1.56860000e-05
4.57183236e-01	-1.11022302e-16	5.00000000e-01	1.12142630e+00	9.72525399e+04	3.02167739e+02	8.24579697e+00	9.48341945e+04	9.69753707e-02	1.56860000e-05
4.64237392e-01	-1.11022302e-16	5.00000000e-01	1.12142524e+00	9.72524870e+04	3.02167861e+02	8.22695055e+00	9.48395398e+04	9.68644388e-02	1.56860000e-05
4.71420798e-01	-1.11022302e-16	5.00000000e-01	1.12142417e+00	9.72524341e+04	3.02167983e+02	8.20810604e+00	9.48448700e+04	9.67533915e-02	1.56860000e-05
4.78737437e-01	-1.11022302e-16	5.00000000e-01	1.12142311e+00	9.72523812e+04	3.02168105e+02	8.18926051e+00	9.48501807e+04	9.66422107e-02	1.56860000e-05
4.86191453e-01	-1.11022302e-16	5.00000000e-01	1.12142206e+00	9.72523284e+04	3.02168226e+02	8.17041017e+00	9.48554721e+04	9.65308738e-02	1.56860000e-05
4.93787166e-01	-1.11022302e-16	5.00000000e-01	1.12142100e+00	9.72522758e+04	3.02168346e+02	8.15155153e+00	9.48607500e+04	9.64193596e-02	1.56860000e-05
5.01529073e-01	-1.11022302e-16	5.00000000e-01	1.12141995e+00	9.72522231e+04	3.02168467e+02	8.13268192e+00	9.48660175e+04	9.63076516e-02	1.56860000e-05
5.09421865e-01	-1.11022302e-16	5.00000000e-01	1.12141890e+00	9.72521706e+04	3.02168587e+02	8.11379858e+00	9.48712717e+04	9.61957327e-02	1.56860000e-05
5.17470434e-01	-1.11022302e-16	5.00000000e-01	1.12141785e+00	9.72521181e+04	3.02168707e+02	8.09489800e+00	9.48765105e+04	9.60835815e-02	1.56860000e-05
5.25679883e-01	-1.11022302e-16	5.00000000e-01	1.12141680e+00	9.72520656e+04	3.02168826e+02	8.07597647e+00	9.48817377e+04	9.59711750e-02	1.56860000e-05
5.34055538e-01	-1.11022302e-16	5.00000000e-01	1.12141575e+00	9.72520133e+04	3.02168945e+02	8.05703085e+00	9.48869579e+04	9.58584937e-02	1.56860000e-05
5.42602964e-01	-1.11022302e-16	5.00000000e-01	1.12141471e+00	9.72519609e+04	3.02169065e+02	8.03805825e+00	9.48921701e+04	9.57455193e-02	1.56860000e-05
5.51327972e-01	-1.11022302e-16	5.00000000e-01	1.12141366e+00	9.72519087e+04	3.02169183e+02	8.01905520e+00	9.48973714e+04	9.56322302e-02	1.56860000e-05
5.60236639e-01	-1.11022302e-16	5.00000000e-01	1.12141262e+00	9.72518565e+04	3.02169302e+02	8.00001772e+00	9.49025640e+04	9.55186014e-02	1.56860000e-05
5.69335321e-01	-1.11022302e-16	5.00000000e-01	1.12141158e+00	9.72518044e+04	3.02169421e+02	7.98094220e+00	9.49077523e+04	9.54046103e-02	1.56860000e-05
5.78630666e-01	-1.11022302e-16	5.00000000e-01	1.12141054e+00	9.72517523e+04	3.02169539e+02	7.96182555e+00	9.49129368e+04	9.52902368e-02	1.56860000e-05
5.88129638e-01	-1.11022302e-16	5.00000000e-01	1.12140950e+00	9.72517003e+04	3.02169658e+02	7.94266424e+00	9.49181162e+04	9.51754586e-02	1.56860000e-05
5.97839528e-01	-1.11022302e-16	5.00000000e-01	1.12140846e+00	9.72516483e+04	3.02169776e+02	7.92345457e+00	9.49232908e+04	9.50602520e-02	1.56860000e-05
6.07767981e-01	-1.11022302e-16	5.00000000e-01	1.12140742e+00	9.72515965e+04	3.02169894e+02	7.90419285e+00	9.49284635e+04	9.49445933e-02	1.56860000e-05
6.17923013e-01	-1.11022302e-16	5.00000000e-01	1.12140639e+00	9.72515447e+04	3.02170012e+02	7.88487533e+00	9.49336359e+04	9.48284581e-02	1.56860000e-05
6.28313033e-01	-1.11022302e-16	5.00000000e-01	1.12140535e+00	9.72514929e+04	3.02170131e+02	7.86549827e+00	9.49388083e+04	9.47118224e-02	1.56860000e-05
6.38946873e-01	-1.11022302e-16	5.00000000e-01	1.12140432e+00	9.72514413e+04	3.02170249e+02	7.84605780e+00	9.49439808e+04	9.45946609e-02	1.56860000e-05
6.49833809e-01	-1.11022302e-16	5.00000000e-01	1.12140328e+00	9.72513897e+04	3.02170367e+02	7.82654979e+00	9.49491543e+04	9.44769467e-02	1.56860000e-05
6.60983593e-01	-1.11022302e-16	5.00000000e-01	1.12140225e+00	9.72513382e+04	3.02170485e+02	7.80696995e+00	9.49543310e+04	9.43586518e-02	1.56860000e-05
6.72406482e-01	-1.11022302e-16	5.00000000e-01	1.12140122e+00	9.72512868e+04	3.02170604e+02	7.78731419e+00	9.49595128e+04	9.42397492e-02	1.56860000e-05
6.84113272e-01	-1.11022302e-16	5.00000000e-01	1.12140019e+00	9.72512355e+04	3.02170722e+02	7.76757843e+00	9.49646998e+04	9.41202120e-02	1.56860000e-05
6.96115333e-01	-1.11022302e-16	5.00000000e-01	1.12139916e+00	9.72511843e+04	3.02170841e+02	7.74775821e+00	9.49698913e+04	9.40000107e-02	1.56860000e-05
7.08424650e-01	-1.11022302e-16	5.00000000e-01	1.12139813e+00	9.72511331e+04	3.02170960e+02	7.72784866e+00	9.49750894e+04	9.38791131e-02	1.56860000e-05
7.21053862e-01	-1.11022302e-16	5.00000000e-01	1.12139710e+00	9.72510821e+04	3.02171079e+02	7.70784513e+00	9.49802974e+04	9.37574883e-02	1.56860000e-05
7.34016311e-01	-1.11022302e-16	5.00000000e-01	1.12139607e+00	9.72510312e+04	3.02171198e+02	7.68774313e+00	9.49855157e+04	9.36351062e-02	1.56860000e-05
1.00098418e-03	-1.11022302e-16	5.00000000e-01	1.12061019e+00	9.72761458e+04	3.02461197e+02	4.45962106e+01	1.07672391e+05	2.25442620e-01	1.56860000e-05
3.00692798e-03	-1.11022302e-16	5.00000000e-01	1.12077785e+00	9.72524996e+04	3.02342440e+02	1.71981273e+01	1.02476979e+05	1.40010340e-01	1.56860000e-05
5.02090070e-03	-1.11022302e-16	5.00000000e-01	1.12115341e+00	9.72592460e+04	3.02262127e+02	1.33073076e+01	9.89634739e+04	1.23179200e-01	1.56860000e-05
7.04305950e-03	-1.11022302e-16	5.00000000e-01	1.12139824e+00	9.72612211e+04	3.02202275e+02	1.25523704e+01	9.63450562e+04	1.19647208e-01	1.56860000e-05
9.07356372e-03	-1.11022302e-16	5.00000000e-01	1.12156617e+00	9.72630600e+04	3.02162739e+02	1.24933754e+01	9.46154344e+04	1.19374649e-01	1.56860000e-05
1.11125749e-02	-1.11022302e-16	5.00000000e-01	1.12166417e+00	9.72643564e+04	3.02140365e+02	1.25852719e+01	9.36366402e+04	1.19818116e-01	1.56860000e-05
1.31602569e-02	-1.11022302e-16	5.00000000e-01	1.12171151e+00	9.72650360e+04	3.02129725e+02	1.26532310e+01	9.31711340e+04	1.20143718e-01	1.56860000e-05
1.52167759e-02	-1.11022302e-16	5.00000000e-01	1.12172935e+00	9.72652376e+04	3.02125546e+02	1.26605157e+01	9.29883283e+04	1.20179253e-01	1.56860000e-05
1.72823004e-02	-1.11022302e-16	5.00000000e-01	1.12173275e+00	9.72651682e+04	3.02124416e+02	1.26194371e+01	9.29388793e+04	1.19984308e-01	1.56860000e-05
1.93570014e-02	-1.11022302e-16	5.00000000e-01	1.12172975e+00	9.72649657e+04	3.02124594e+02	1.25505951e+01	9.29466817e+04	1.19656429e-01	1.56860000e-05
2.14410524e-02	-1.11022302e-16	5.00000000e-01	1.12172401e+00	9.72647063e+04	3.02125335e+02	1.24687593e+01	9.29791019e+04	1.19265378e-01	1.56860000e-05
2.35346296e-02	-1.11022302e-16	5.00000000e-01	1.12171708e+00	9.72644273e+04	3.02126333e+02	1.23819518e+01	9.30227561e+04	1.18849123e-01	1.56860000e-05
2.56379117e-02	-1.11022302e-16	5.00000000e-01	1.12170969e+00	9.72641472e+04	3.02127454e+02	1.22940203e+01	9.30718055e+04	1.18425972e-01	1.56860000e-05
2.77510800e-02	-1.11022302e-16	5.00000000e-01	1.12170218e+00	9.72638727e+04	3.02128625e+02	1.22067905e+01	9.31230295e+04	1.18004695e-01	1.56860000e-05
2.98743189e-02	-1.11022302e-16	5.00000000e-01	1.12169466e+00	9.72635981e+04	3.02129796e+02	1.21210919e+01	9.31742693e+04	1.17589342e-01	1.56860000e-05
3.20078154e-02	-1.11022302e-16	5.00000000e-01	1.12168726e+00	9.72633252e+04	3.02130943e+02	1.20372440e+01	9.32244275e+04	1.17181536e-01	1.56860000e-05
3.41517595e-02	-1.11022302e-16	5.00000000e-01	1.12168015e+00	9.72630691e+04	3.02132062e+02	1.19555014e+01	9.32734008e+04	1.16782610e-01	1.56860000e-05
3.63063441e-02	-1.11022302e-16	5.00000000e-01	1.12167330e+00	9.72628222e+04	3.02133141e+02	1.18760573e+01	9.33205832e+04	1.16393598e-01	1.56860000e-05
3.84717654e-02	-1.11022302e-16	5.00000000e-01	1.12166672e+00	9.72625851e+04	3.02134176e+02	1.17989523e+01	9.33658583e+04	1.16014802e-01	1.56860000e-05
4.06482225e-02	-1.11022302e-16	5.00000000e-01	1.12166042e+00	9.72623571e+04	3.02135166e+02	1.17241818e+01	9.34091851e+04	1.15646297e-01	1.56860000e-05
4.28359179e-02	-1.11022302e-16	5.00000000e-01	1.12165437e+00	9.72621379e+04	3.02136113e+02	1.16516924e+01	9.34506131e+04	1.15287917e-01	1.56860000e-05
4.50350572e-02	-1.11022302e-16	5.00000000e-01	1.12164858e+00	9.72619267e+04	3.02137019e+02	1.15814039e+01	9.34902302e+04	1.14939359e-01	1.56860000e-05
4.72458497e-02	-1.11022302e-16	5.00000000e-01	1.12164301e+00	9.72617232e+04	3.02137885e+02	1.15132215e+01	9.35281267e+04	1.14600238e-01	1.56860000e-05
4.94685079e-02	-1.11022302e-16	5.00000000e-01	1.12163767e+00	9.72615268e+04	3.02138714e+02	1.14470458e+01	9.35644066e+04	1.14270141e-01	1.56860000e-05
5.17032481e-02	-1.11022302e-16	5.00000000e-01	1.12163253e+00	9.72613371e+04	3.02139509e+02	1.13827797e+01	9.35991702e+04	1.13948661e-01	1.56860000e-05
5.39502900e-02	-1.11022302e-16	5.00000000e-01	1.12162759e+00	9.72611537e+04	3.02140271e+02	1.13203309e+01	9.36325073e+04	1.13635405e-01	1.56860000e-05
5.62098573e-02	-1.11022302e-16	5.00000000e-01	1.12162282e+00	9.72609762e+04	3.02141003e+02	1.12596147e+01	9.36645166e+04	1.13330015e-01	1.56860000e-05
5.84821774e-02	-1.11022302e-16	5.00000000e-01	1.12161823e+00	9.72608044e+04	3.02141705e+02	1.12005533e+01	9.36952598e+04	1.13032161e-01	1.56860000e-05
6.07674817e-02	-1.11022302e-16	5.00000000e-01	1.12161381e+00	9.72606379e+04	3.02142381e+02	1.11430730e+01	9.37248116e+04	1.12741529e-01	1.56860000e-05
6.30660058e-02	-1.11022302e-16	5.00000000e-01	1.12160953e+00	9.72604764e+04	3.02143031e+02	1.10871041e+01	9.37532445e+04	1.12457822e-01	1.56860000e-05
6.53779892e-02	-1.11022302e-16	5.00000000e-01	1.12160540e+00	9.72603198e+04	3.02143657e+02	1.10325806e+01	9.37806225e+04	1.12180756e-01	1.56860000e-05
6.77036758e-02	-1.11022302e-16	5.00000000e-01	1.12160141e+00	9.72601677e+04	3.02144259e+02	1.09794404e+01	9.38069975e+04	1.11910062e-01	1.56860000e-05
7.00433139e-02	-1.11022302e-16	5.00000000e-01	1.12159755e+00	9.72600199e+04	3.02144841e+02	1.09276239e+01	9.38324324e+04	1.11645483e-01	1.56860000e-05
7.23971563e-02	-1.11022302e-16	5.00000000e-01	1.12159381e+00	9.72598762e+04	3.02145402e+02	1.08770734e+01	9.38569655e+04	1.11386765e-01	1.56860000e-05
7.47654604e-02	-1.11022302e-16	5.00000000e-01	1.12159019e+00	9.72597365e+04	3.02145943e+02	1.08277345e+01	9.38806620e+04	1.11133671e-01	1.56860000e-05
7.71484882e-02	-1.11022302e-16	5.00000000e-01	1.12158668e+00	9.72596004e+04	3.02146467e+02	1.07795567e+01	9.39035592e+04	1.10885978e-01	1.56860000e-05
7.95465068e-02	-1.11022302e-16	5.00000000e-01	1.12158327e+00	9.72594679e+04	3.02146973e+02	1.07324920e+01	9.39257023e+04	1.10643476e-01	1.56860000e-05
8.19597882e-02	-1.11022302e-16	5.00000000e-01	1.12157996e+00	9.72593387e+04	3.02147462e+02	1.06864941e+01	9.39471224e+04	1.10405957e-01	1.56860000e-05
8.43886095e-02	-1.11022302e-16	5.00000000e-01	1.12157675e+00	9.72592127e+04	3.02147937e+02	1.06415182e+01	9.39678657e+04	1.10173223e-01	1.56860000e-05
8.68332529e-02	-1.11022302e-16	5.00000000e-01	1.12157362e+00	9.72590897e+04	3.02148396e+02	1.05975220e+01	9.39879616e+04	1.09945085e-01	1.56860000e-05
8.92940064e-02	-1.11022302e-16	5.00000000e-01	1.12157059e+00	9.72589696e+04	3.02148841e+02	1.05544648e+01	9.40074429e+04	1.09721358e-01	1.56860000e-05
9.17711631e-02	-1.11022302e-16	5.00000000e-01	1.12156763e+00	9.72588523e+04	3.02149273e+02	1.05123081e+01	9.40263441e+04	1.09501870e-01	1.56860000e-05
9.42650222e-02	-1.11022302e-16	5.00000000e-01	1.12156475e+00	9.72587375e+04	3.02149693e+02	1.04710159e+01	9.40446933e+04	1.09286457e-01	1.56860000e-05
9.67758884e-02	-1.11022302e-16	5.00000000e-01	1.12156194e+00	9.72586253e+04	3.02150100e+02	1.04305543e+01	9.40625177e+04	1.09074966e-01	1.56860000e-05
9.93040727e-02	-1.11022302e-16	5.00000000e-01	1.12155921e+00	9.72585154e+04	3.02150496e+02	1.03908904e+01	9.40798363e+04	1.08867248e-01	1.56860000e-05
1.01849892e-01	-1.11022302e-16	5.00000000e-01	1.12155654e+00	9.72584078e+04	3.02150881e+02	1.03519926e+01	9.40966818e+04	1.08663158e-01	1.56860000e-05
1.04413670e-01	-1.11022302e-16	5.00000000e-01	1.12155393e+00	9.72583024e+04	3.02151256e+02	1.03138313e+01	9.41130723e+04	1.08462561e-01	1.56860000e-05
1.06995736e-01	-1.11022302e-16	5.00000000e-01	1.12155138e+00	9.72581990e+04	3.02151620e+02	1.02763777e+01	9.41290244e+04	1.08265324e-01	1.56860000e-05
1.09596428e-01	-1.11022302e-16	5.00000000e-01	1.12154890e+00	9.72580976e+04	3.02151976e+02	1.02396041e+01	9.41445661e+04	1.08071319e-01	1.56860000e-05
1.12216088e-01	-1.11022302e-16	5.00000000e-01	1.12154646e+00	9.72579981e+04	3.02152322e+02	1.02034852e+01	9.41597142e+04	1.07880429e-01	1.56860000e-05
1.14855067e-01	-1.11022302e-16	5.00000000e-01	1.12154408e+00	9.72579004e+04	3.02152660e+02	1.01679974e+01	9.41744850e+04	1.07692547e-01	1.56860000e-05
1.17513723e-01	-1.11022302e-16	5.00000000e-01	1.12154175e+00	9.72578045e+04	3.02152989e+02	1.01331173e+01	9.41888943e+04	1.07507564e-01	1.56860000e-05
1.20192422e-01	-1.11022302e-16	5.00000000e-01	1.12153947e+00	9.72577102e+04	3.02153310e+02	1.00988224e+01	9.42029538e+04	1.07325374e-01	1.56860000e-05
1.22891536e-01	-1.11022302e-16	5.00000000e-01	1.12153724e+00	9.72576175e+04	3.02153624e+02	1.00650913e+01	9.42166857e+04	1.07145878e-01	1.56860000e-05
1.98926038e+00	-1.11022302e-16	5.00000000e-01	1.12129371e+00	9.72437893e+04	3.02176278e+02	6.67433394e+00	9.52077621e+04	8.72415594e-02	1.56860000e-05
7.47326088e-01	-1.11022302e-16	5.00000000e-01	1.12139504e+00	9.72509805e+04	3.02171318e+02	7.66753780e+00	9.49907429e+04	9.35119339e-02	1.56860000e-05
7.60998086e-01	-1.11022302e-16	5.00000000e-01	1.12139401e+00	9.72509298e+04	3.02171437e+02	7.64722375e+00	9.49959810e+04	9.33879357e-02	1.56860000e-05
7.75048064e-01	-1.11022302e-16	5.00000000e-01	1.12139298e+00	9.72508793e+04	3.02171558e+02	7.62679571e+00	9.50012338e+04	9.32630759e-02	1.56860000e-05
7.89492704e-01	-1.11022302e-16	5.00000000e-01	1.12139195e+00	9.72508290e+04	3.02171678e+02	7.60624858e+00	9.50065017e+04	9.31373198e-02	1.56860000e-05
8.04349681e-01	-1.11022302e-16	5.00000000e-01	1.12139093e+00	9.72507789e+04	3.02171799e+02	7.58557682e+00	9.50117834e+04	9.30106299e-02	1.56860000e-05
8.19637743e-01	-1.11022302e-16	5.00000000e-01	1.12138990e+00	9.72507288e+04	3.02171920e+02	7.56477431e+00	9.50170808e+04	9.28829648e-02	1.56860000e-05
8.35376787e-01	-1.11022302e-16	5.00000000e-01	1.12138888e+00	9.72506790e+04	3.02172041e+02	7.54383498e+00	9.50223976e+04	9.27542830e-02	1.56860000e-05
8.51587953e-01	-1.11022302e-16	5.00000000e-01	1.12138785e+00	9.72506294e+04	3.02172163e+02	7.52275298e+00	9.50277361e+04	9.26245445e-02	1.56860000e-05
8.68293719e-01	-1.11022302e-16	5.00000000e-01	1.12138683e+00	9.72505800e+04	3.02172286e+02	7.50152201e+00	9.50330929e+04	9.24937058e-02	1.56860000e-05
8.85518015e-01	-1.11022302e-16	5.00000000e-01	1.12138580e+00	9.72505308e+04	3.02172409e+02	7.48013494e+00	9.50384701e+04	9.23617184e-02	1.56860000e-05
9.03286333e-01	-1.11022302e-16	5.00000000e-01	1.12138478e+00	9.72504818e+04	3.02172532e+02	7.45858495e+00	9.50438741e+04	9.22285350e-02	1.56860000e-05
9.21625865e-01	-1.11022302e-16	5.00000000e-01	1.12138376e+00	9.72504330e+04	3.02172656e+02	7.43686552e+00	9.50493025e+04	9.20941101e-02	1.56860000e-05
9.40565642e-01	-1.11022302e-16	5.00000000e-01	1.12138273e+00	9.72503843e+04	3.02172781e+02	7.41496934e+00	9.50547499e+04	9.19583930e-02	1.56860000e-05
9.60136694e-01	-1.11022302e-16	5.00000000e-01	1.12138171e+00	9.72503357e+04	3.02172906e+02	7.39288910e+00	9.50602291e+04	9.18213325e-02	1.56860000e-05
9.80372227e-01	-1.11022302e-16	5.00000000e-01	1.12138069e+00	9.72502879e+04	3.02173033e+02	7.37061892e+00	9.50657731e+04	9.16828860e-02	1.56860000e-05
1.00130781e+00	-1.11022302e-16	5.00000000e-01	1.12137967e+00	9.72502415e+04	3.02173161e+02	7.34815179e+00	9.50714019e+04	9.15430041e-02	1.56860000e-05
1.02269484e+00	-1.11022302e-16	5.00000000e-01	1.12137867e+00	9.72501959e+04	3.02173289e+02	7.32576809e+00	9.50769943e+04	9.14034294e-02	1.56860000e-05
1.04417407e+00	-1.11022302e-16	5.00000000e-01	1.12137770e+00	9.72501509e+04	3.02173413e+02	7.30383695e+00	9.50824145e+04	9.12664698e-02	1.56860000e-05
1.06565331e+00	-1.11022302e-16	5.00000000e-01	1.12137675e+00	9.72501075e+04	3.02173533e+02	7.28243192e+00	9.50876731e+04	9.11325980e-02	1.56860000e-05
1.08713254e+00	-1.11022302e-16	5.00000000e-01	1.12137584e+00	9.72500660e+04	3.02173650e+02	7.26153130e+00	9.50927867e+04	9.10016915e-02	1.56860000e-05
1.10861177e+00	-1.11022302e-16	5.00000000e-01	1.12137495e+00	9.72500261e+04	3.02173764e+02	7.24111422e+00	9.50977660e+04	9.08736320e-02	1.56860000e-05
1.13009101e+00	-1.11022302e-16	5.00000000e-01	1.12137410e+00	9.72499877e+04	3.02173875e+02	7.22116112e+00	9.51026170e+04	9.07483086e-02	1.56860000e-05
1.15157024e+00	-1.11022302e-16	5.00000000e-01	1.12137327e+00	9.72499508e+04	3.02173983e+02	7.20165331e+00	9.51073456e+04	9.06256150e-02	1.56860000e-05
1.17304948e+00	-1.11022302e-16	5.00000000e-01	1.12137247e+00	9.72499152e+04	3.02174088e+02	7.18257317e+00	9.51119585e+04	9.05054508e-02	1.56860000e-05
1.19452871e+00	-1.11022302e-16	5.00000000e-01	1.12137169e+00	9.72498809e+04	3.02174191e+02	7.16390410e+00	9.51164589e+04	9.03877213e-02	1.56860000e-05
1.21600795e+00	-1.11022302e-16	5.00000000e-01	1.12137094e+00	9.72498478e+04	3.02174292e+02	7.14563006e+00	9.51208505e+04	9.02723345e-02	1.56860000e-05
1.23748718e+00	-1.11022302e-16	5.00000000e-01	1.12137021e+00	9.72498157e+04	3.02174390e+02	7.12773611e+00	9.51251415e+04	9.01592050e-02	1.56860000e-05
1.25896642e+00	-1.11022302e-16	5.00000000e-01	1.12136949e+00	9.72497847e+04	3.02174486e+02	7.11020852e+00	9.51293359e+04	9.00482543e-02	1.56860000e-05
1.28044565e+00	-1.11022302e-16	5.00000000e-01	1.12136880e+00	9.72497545e+04	3.02174579e+02	7.09303401e+00	9.51334351e+04	8.99394062e-02	1.56860000e-05
1.30192488e+00	-1.11022302e-16	5.00000000e-01	1.12136812e+00	9.72497252e+04	3.02174671e+02	7.07619997e+00	9.51374422e+04	8.98325881e-02	1.56860000e-05
1.32340412e+00	-1.11022302e-16	5.00000000e-01	1.12136746e+00	9.72496967e+04	3.02174761e+02	7.05969428e+00	9.51413611e+04	8.97277304e-02	1.56860000e-05
1.34488335e+00	-1.11022302e-16	5.00000000e-01	1.12136681e+00	9.72496688e+04	3.02174848e+02	7.04350565e+00	9.51451952e+04	8.96247679e-02	1.56860000e-05
1.36636259e+00	-1.11022302e-16	5.00000000e-01	1.12136618e+00	9.72496415e+04	3.02174934e+02	7.02762365e+00	9.51489484e+04	8.95236407e-02	1.56860000e-05
1.38784182e+00	-1.11022302e-16	5.00000000e-01	1.12136556e+00	9.72496147e+04	3.02175018e+02	7.01203837e+00	9.51526238e+04	8.94242918e-02	1.56860000e-05