VARIABLES = "Iter" "Res_rho" "Res_rhou-X" "Res_rhou-Y" "Res_rhou-Z" "Res_rhoE" "Res_kine" "Res_omega"
Zone T = "residuals" F = point
      10    1.9737e-01    2.5719e+00    2.6228e+00   -1.1498e+01    5.6778e+00   -6.7797e-01    1.1681e+01
      20   -3.5776e-01    2.3171e+00    2.1686e+00   -1.1504e+01    5.1151e+00   -1.3171e+00    1.0721e+01
      30   -7.0857e-01    2.1544e+00    1.7829e+00   -1.1528e+01    4.7768e+00   -1.6931e+00    9.8623e+00
      40   -1.0276e+00    2.0604e+00    1.4221e+00   -1.1565e+01    4.4615e+00   -1.9349e+00    8.9942e+00
      50   -1.3761e+00    1.9749e+00    1.0538e+00   -1.1549e+01    4.1400e+00   -2.0974e+00    8.4527e+00
      60   -1.5745e+00    1.9171e+00    7.0352e-01   -1.1556e+01    3.9325e+00   -2.2065e+00    8.0356e+00
      70   -1.8131e+00    1.8666e+00    4.5050e-01   -1.1555e+01    3.7342e+00   -2.2704e+00    7.6769e+00
      80   -1.9291e+00    1.8264e+00    2.5045e-01   -1.1568e+01    3.6215e+00   -2.3031e+00    7.3882e+00
      90   -2.0178e+00    1.7916e+00    2.9096e-02   -1.1561e+01    3.5462e+00   -2.3043e+00    7.1424e+00
     100   -2.0637e+00    1.7603e+00   -1.7036e-01   -1.1593e+01    3.4955e+00   -2.3013e+00    6.9290e+00
     110   -2.1054e+00    1.7320e+00   -2.9682e-01   -1.1570e+01    3.4564e+00   -2.2965e+00    6.7245e+00
     120   -2.1340e+00    1.7061e+00   -3.7379e-01   -1.1561e+01    3.4228e+00   -2.2915e+00    6.5896e+00
     130   -2.1585e+00    1.6822e+00   -4.2137e-01   -1.1546e+01    3.3959e+00   -2.2875e+00    6.5093e+00
     140   -2.1817e+00    1.6600e+00   -4.5025e-01   -1.1550e+01    3.3695e+00   -2.2829e+00    6.4550e+00
     150   -2.2023e+00    1.6391e+00   -4.7076e-01   -1.1519e+01    3.3464e+00   -2.2773e+00    6.4032e+00
     160   -2.2210e+00    1.6193e+00   -4.8784e-01   -1.1560e+01    3.3249e+00   -2.2705e+00    6.3666e+00
     170   -2.2397e+00    1.6007e+00   -5.0352e-01   -1.1541e+01    3.3043e+00   -2.2616e+00    6.3212e+00
     180   -2.2569e+00    1.5829e+00   -5.1597e-01   -1.1577e+01    3.2849e+00   -2.2506e+00    6.2885e+00
     190   -2.2738e+00    1.5660e+00   -5.3080e-01   -1.1535e+01    3.2662e+00   -2.2369e+00    6.2527e+00
     200   -2.2899e+00    1.5498e+00   -5.4437e-01   -1.1571e+01    3.2484e+00   -2.2205e+00    6.2228e+00
     210   -2.3054e+00    1.5342e+00   -5.5798e-01   -1.1544e+01    3.2313e+00   -2.2012e+00    6.1923e+00
     220   -2.3204e+00    1.5194e+00   -5.7113e-01   -1.1566e+01    3.2149e+00   -2.1785e+00    6.1634e+00
     230   -2.3349e+00    1.5050e+00   -5.8414e-01   -1.1560e+01    3.1992e+00   -2.1526e+00    6.1359e+00
     240   -2.3489e+00    1.4912e+00   -5.9688e-01   -1.1567e+01    3.1839e+00   -2.1233e+00    6.1092e+00
     250   -2.3722e+00    1.4778e+00   -7.2884e-01   -1.1545e+01    3.1602e+00   -2.0908e+00    6.2884e+00
     260   -2.3854e+00    1.4649e+00   -7.4527e-01   -1.1580e+01    3.1470e+00   -2.0549e+00    6.1833e+00
     270   -2.3948e+00    1.4526e+00   -7.3937e-01   -1.1578e+01    3.1359e+00   -2.0155e+00    6.0873e+00
     280   -2.3964e+00    1.4409e+00   -6.6826e-01   -1.1555e+01    3.1324e+00   -1.9737e+00    6.0321e+00
     290   -2.4032e+00    1.4294e+00   -6.5458e-01   -1.1539e+01    3.1243e+00   -1.9281e+00    5.9955e+00
     300   -2.4145e+00    1.4181e+00   -6.5888e-01   -1.1585e+01    3.1123e+00   -1.8795e+00    5.9650e+00
     310   -2.4255e+00    1.4070e+00   -6.6741e-01   -1.1554e+01    3.1005e+00   -1.8279e+00    5.9418e+00
     320   -2.4364e+00    1.3963e+00   -6.7620e-01   -1.1564e+01    3.0889e+00   -1.7762e+00    5.9186e+00
     330   -2.4470e+00    1.3858e+00   -6.8434e-01   -1.1573e+01    3.0777e+00   -1.7247e+00    5.8987e+00
     340   -2.4574e+00    1.3757e+00   -6.9272e-01   -1.1548e+01    3.0667e+00   -1.6723e+00    5.8799e+00
     350   -2.4675e+00    1.3657e+00   -7.0103e-01   -1.1555e+01    3.0559e+00   -1.6192e+00    5.8610e+00
     360   -2.4775e+00    1.3560e+00   -7.0933e-01   -1.1537e+01    3.0454e+00   -1.5650e+00    5.8450e+00
     370   -2.4872e+00    1.3465e+00   -7.1766e-01   -1.1557e+01    3.0351e+00   -1.5109e+00    5.8262e+00
     380   -2.4968e+00    1.3372e+00   -7.2600e-01   -1.1564e+01    3.0250e+00   -1.4551e+00    5.8100e+00
     390   -2.5062e+00    1.3282e+00   -7.3434e-01   -1.1551e+01    3.0152e+00   -1.3992e+00    5.7935e+00
     400   -2.5155e+00    1.3193e+00   -7.4268e-01   -1.1559e+01    3.0055e+00   -1.3430e+00    5.7765e+00
     410   -2.5246e+00    1.3106e+00   -7.5105e-01   -1.1541e+01    2.9960e+00   -1.2867e+00    5.7619e+00
     420   -2.5335e+00    1.3021e+00   -7.5941e-01   -1.1555e+01    2.9866e+00   -1.2305e+00    5.7446e+00
     430   -2.5423e+00    1.2938e+00   -7.6778e-01   -1.1535e+01    2.9775e+00   -1.1739e+00    5.7293e+00
     440   -2.5510e+00    1.2856e+00   -7.7614e-01   -1.1554e+01    2.9684e+00   -1.1182e+00    5.7147e+00
     450   -2.5595e+00    1.2776e+00   -7.8448e-01   -1.1580e+01    2.9596e+00   -1.0612e+00    5.6986e+00
     460   -2.5679e+00    1.2697e+00   -7.9282e-01   -1.1558e+01    2.9509e+00   -1.0038e+00    5.6842e+00
     470   -2.5761e+00    1.2620e+00   -8.0115e-01   -1.1530e+01    2.9423e+00   -9.4652e-01    5.6704e+00
     480   -2.5843e+00    1.2544e+00   -8.0942e-01   -1.1544e+01    2.9339e+00   -8.8880e-01    5.6554e+00
     490   -2.5923e+00    1.2469e+00   -8.1763e-01   -1.1558e+01    2.9256e+00   -8.3052e-01    5.6415e+00
     500   -2.6001e+00    1.2396e+00   -8.2578e-01   -1.1559e+01    2.9174e+00   -7.7229e-01    5.6285e+00
     510   -2.6079e+00    1.2323e+00   -8.3389e-01   -1.1567e+01    2.9094e+00   -7.1455e-01    5.6144e+00
     520   -2.6155e+00    1.2253e+00   -8.4197e-01   -1.1583e+01    2.9015e+00   -6.5570e-01    5.6009e+00
     530   -2.6230e+00    1.2183e+00   -8.4991e-01   -1.1559e+01    2.8938e+00   -5.9657e-01    5.5881e+00
     540   -2.6303e+00    1.2114e+00   -8.5743e-01   -1.1545e+01    2.8862e+00   -5.3731e-01    5.5754e+00
     550   -2.6375e+00    1.2046e+00   -8.6460e-01   -1.1581e+01    2.8788e+00   -4.7797e-01    5.5621e+00
     560   -2.6446e+00    1.1980e+00   -8.7146e-01   -1.1571e+01    2.8715e+00   -4.1834e-01    5.5494e+00
     570   -2.6515e+00    1.1914e+00   -8.7804e-01   -1.1580e+01    2.8643e+00   -3.5865e-01    5.5370e+00
     580   -2.6583e+00    1.1850e+00   -8.8429e-01   -1.1577e+01    2.8573e+00   -2.9891e-01    5.5259e+00
     590   -2.6650e+00    1.1786e+00   -8.9022e-01   -1.1577e+01    2.8504e+00   -2.4000e-01    5.5125e+00
     600   -2.6715e+00    1.1723e+00   -8.9573e-01   -1.1563e+01    2.8437e+00   -1.8024e-01    5.5017e+00
     610   -2.6779e+00    1.1661e+00   -9.0083e-01   -1.1548e+01    2.8371e+00   -1.2050e-01    5.4904e+00
     620   -2.6841e+00    1.1600e+00   -9.0547e-01   -1.1560e+01    2.8307e+00   -6.0992e-02    5.4848e+00
     630   -2.6901e+00    1.1540e+00   -9.0961e-01   -1.1566e+01    2.8245e+00   -1.6393e-03    5.4739e+00
     640   -2.6959e+00    1.1481e+00   -9.1317e-01   -1.1570e+01    2.8185e+00    5.7421e-02    5.4741e+00
     650   -2.7014e+00    1.1423e+00   -9.1610e-01   -1.1574e+01    2.8127e+00    1.1612e-01    5.4809e+00
     660   -2.7067e+00    1.1365e+00   -9.1823e-01   -1.1557e+01    2.8072e+00    1.7430e-01    5.5120e+00
     670   -2.7117e+00    1.1308e+00   -9.1960e-01   -1.1552e+01    2.8020e+00    2.3103e-01    5.4656e+00
     680   -2.7163e+00    1.1252e+00   -9.1985e-01   -1.1560e+01    2.7971e+00    2.8793e-01    5.4564e+00
     690   -2.7204e+00    1.1197e+00   -9.1885e-01   -1.1539e+01    2.7927e+00    3.4399e-01    5.4237e+00
     700   -2.7241e+00    1.1143e+00   -9.1644e-01   -1.1558e+01    2.7887e+00    3.9905e-01    5.4319e+00
     710   -2.7273e+00    1.1090e+00   -9.1244e-01   -1.1546e+01    2.7853e+00    4.5306e-01    5.4139e+00
     720   -2.7298e+00    1.1038e+00   -9.0674e-01   -1.1560e+01    2.7825e+00    5.0590e-01    5.4144e+00
     730   -2.7293e+00    1.0985e+00   -8.8443e-01   -1.1592e+01    2.7836e+00    5.5739e-01    5.7421e+00
     740   -2.7274e+00    1.0935e+00   -8.7974e-01   -1.1557e+01    2.7833e+00    6.0744e-01    5.6549e+00
     750   -2.7302e+00    1.0888e+00   -8.7316e-01   -1.1561e+01    2.7813e+00    6.5591e-01    5.6037e+00
     760   -2.7292e+00    1.0841e+00   -8.6976e-01   -1.1557e+01    2.7814e+00    7.0201e-01    5.4760e+00
     770   -2.7288e+00    1.0797e+00   -8.6004e-01   -1.1559e+01    2.7819e+00    7.4765e-01    5.5679e+00
     780   -2.7271e+00    1.0753e+00   -8.5212e-01   -1.1536e+01    2.7831e+00    7.9072e-01    5.4633e+00
     790   -2.7252e+00    1.0712e+00   -8.4249e-01   -1.1568e+01    2.7847e+00    8.3175e-01    5.3719e+00
     800   -2.7228e+00    1.0672e+00   -8.3287e-01   -1.1559e+01    2.7869e+00    8.7053e-01    5.3078e+00
     810   -2.7202e+00    1.0633e+00   -8.2398e-01   -1.1566e+01    2.7892e+00    9.0717e-01    5.3632e+00
     820   -2.7172e+00    1.0595e+00   -8.1451e-01   -1.1563e+01    2.7919e+00    9.4181e-01    5.2987e+00
     830   -2.7139e+00    1.0559e+00   -8.0552e-01   -1.1562e+01    2.7949e+00    9.7417e-01    5.2771e+00
     840   -2.7102e+00    1.0525e+00   -7.9724e-01   -1.1535e+01    2.7983e+00    1.0044e+00    5.2832e+00
     850   -2.7184e+00    1.0490e+00   -8.3891e-01   -1.1291e+01    2.7883e+00    1.0324e+00    5.4960e+00
     860   -2.7165e+00    1.0458e+00   -8.4115e-01   -1.1404e+01    2.7924e+00    1.0583e+00    5.3875e+00
     870   -2.7095e+00    1.0430e+00   -8.2853e-01   -1.1487e+01    2.7983e+00    1.0818e+00    5.6679e+00
     880   -2.7041e+00    1.0403e+00   -8.1885e-01   -1.1544e+01    2.8035e+00    1.1032e+00    6.2506e+00
     890   -2.6987e+00    1.0378e+00   -8.0614e-01   -1.1539e+01    2.8084e+00    1.1144e+00    7.0580e+00
     900   -2.6940e+00    1.0356e+00   -7.9526e-01   -1.1537e+01    2.8130e+00    1.1205e+00    6.2581e+00
     910   -2.6893e+00    1.0346e+00   -7.8580e-01   -1.1444e+01    2.8175e+00    1.1246e+00    5.5479e+00
     920   -2.6850e+00    1.0359e+00   -7.7731e-01   -1.1328e+01    2.8224e+00    1.1271e+00    5.9574e+00
     930   -2.6806e+00    1.0381e+00   -7.6952e-01   -1.1140e+01    2.8278e+00    1.1289e+00    5.3865e+00
     940   -2.6762e+00    1.0408e+00   -7.6126e-01   -1.0943e+01    2.8330e+00    1.1303e+00    5.8204e+00
     950   -2.6722e+00    1.0441e+00   -7.5351e-01   -1.0880e+01    2.8379e+00    1.1313e+00    5.3334e+00
     960   -2.6689e+00    1.0479e+00   -7.4470e-01   -1.0865e+01    2.8421e+00    1.1322e+00    5.2479e+00
     970   -2.6719e+00    1.0519e+00   -7.6739e-01   -1.1543e+01    2.8392e+00    1.1327e+00    5.3383e+00
     980   -2.6683e+00    1.0566e+00   -7.5675e-01   -1.1554e+01    2.8447e+00    1.1335e+00    5.3779e+00
     990   -2.6672e+00    1.0618e+00   -7.6373e-01   -1.1568e+01    2.8453e+00    1.1337e+00    5.3681e+00
    1000   -2.6633e+00    1.0676e+00   -7.5278e-01   -1.1426e+01    2.8503e+00    1.1342e+00    5.3100e+00
    1010   -2.6582e+00    1.0733e+00   -7.3589e-01   -1.1542e+01    2.8557e+00    1.1344e+00    5.2631e+00
    1020   -2.6546e+00    1.0784e+00   -7.2723e-01   -1.1563e+01    2.8593e+00    1.1344e+00    5.2564e+00
    1030   -2.6509e+00    1.0831e+00   -7.1823e-01   -1.1551e+01    2.8632e+00    1.1342e+00    5.2509e+00
    1040   -2.6475e+00    1.0874e+00   -7.0930e-01   -1.1562e+01    2.8668e+00    1.1341e+00    5.2471e+00
    1050   -2.6438e+00    1.0912e+00   -6.9939e-01   -1.1552e+01    2.8704e+00    1.1332e+00    5.2568e+00
    1060   -2.6403e+00    1.0947e+00   -6.8979e-01   -1.1557e+01    2.8739e+00    1.1324e+00    5.2492e+00
    1070   -2.6370e+00    1.0977e+00   -6.8023e-01   -1.1547e+01    2.8772e+00    1.1310e+00    5.2542e+00
    1080   -2.6423e+00    1.1002e+00   -7.0368e-01   -1.1545e+01    2.8713e+00    1.1296e+00    5.3291e+00
    1090   -2.6406e+00    1.1028e+00   -6.9691e-01   -1.1548e+01    2.8745e+00    1.1280e+00    5.3145e+00
    1100   -2.6368e+00    1.1051e+00   -6.8378e-01   -1.1568e+01    2.8780e+00    1.1263e+00    5.2877e+00
    1110   -2.6327e+00    1.1074e+00   -6.6821e-01   -1.1541e+01    2.8819e+00    1.1243e+00    5.2719e+00
    1120   -2.6296e+00    1.1094e+00   -6.5848e-01   -1.1554e+01    2.8848e+00    1.1223e+00    5.2728e+00
    1130   -2.6265e+00    1.1113e+00   -6.4767e-01   -1.1535e+01    2.8877e+00    1.1194e+00    5.2593e+00
    1140   -2.6234e+00    1.1129e+00   -6.3791e-01   -1.1541e+01    2.8905e+00    1.1167e+00    5.2350e+00
    1150   -2.6274e+00    1.1142e+00   -6.4852e-01   -1.1532e+01    2.8856e+00    1.1138e+00    5.4048e+00
    1160   -2.6295e+00    1.1154e+00   -6.5322e-01   -1.1550e+01    2.8855e+00    1.1105e+00    5.4073e+00
    1170   -2.6263e+00    1.1165e+00   -6.4817e-01   -1.1546e+01    2.8873e+00    1.1073e+00    5.3169e+00
    1180   -2.6234e+00    1.1175e+00   -6.3509e-01   -1.1579e+01    2.8906e+00    1.1034e+00    5.2726e+00
    1190   -2.6198e+00    1.1184e+00   -6.2520e-01   -1.1556e+01    2.8936e+00    1.0998e+00    5.2447e+00
    1200   -2.6178e+00    1.1190e+00   -6.1794e-01   -1.1532e+01    2.8954e+00    1.0959e+00    5.2433e+00
    1210   -2.6142e+00    1.1196e+00   -6.0392e-01   -1.1551e+01    2.8985e+00    1.0918e+00    5.2120e+00
    1220   -2.6109e+00    1.1199e+00   -5.9663e-01   -1.1552e+01    2.9005e+00    1.0873e+00    5.3527e+00
    1230   -2.6190e+00    1.1199e+00   -6.1534e-01   -1.1553e+01    2.8916e+00    1.0829e+00    5.3286e+00
    1240   -2.6190e+00    1.1198e+00   -6.1101e-01   -1.1551e+01    2.8935e+00    1.0784e+00    5.2477e+00
    1250   -2.6167e+00    1.1196e+00   -6.0140e-01   -1.1553e+01    2.8950e+00    1.0737e+00    5.2403e+00
    1260   -2.6146e+00    1.1193e+00   -5.9341e-01   -1.1556e+01    2.8967e+00    1.0688e+00    5.2365e+00
    1270   -2.6119e+00    1.1189e+00   -5.8443e-01   -1.1558e+01    2.8988e+00    1.0642e+00    5.1768e+00
    1280   -2.6097e+00    1.1183e+00   -5.7622e-01   -1.1556e+01    2.9003e+00    1.0592e+00    5.1975e+00
    1290   -2.6082e+00    1.1175e+00   -5.6849e-01   -1.1554e+01    2.9016e+00    1.0543e+00    5.1661e+00
    1300   -2.6060e+00    1.1166e+00   -5.6022e-01   -1.1537e+01    2.9031e+00    1.0492e+00    5.1908e+00
    1310   -2.6118e+00    1.1154e+00   -5.6811e-01   -1.1563e+01    2.8959e+00    1.0441e+00    5.2976e+00
    1320   -2.6139e+00    1.1142e+00   -5.6958e-01   -1.1546e+01    2.8952e+00    1.0387e+00    5.2032e+00
    1330   -2.6123e+00    1.1128e+00   -5.6220e-01   -1.1538e+01    2.8962e+00    1.0336e+00    5.1829e+00
    1340   -2.6108e+00    1.1113e+00   -5.5284e-01   -1.1558e+01    2.8970e+00    1.0281e+00    5.1390e+00
    1350   -2.6098e+00    1.1097e+00   -5.4554e-01   -1.1538e+01    2.8979e+00    1.0230e+00    5.1142e+00
    1360   -2.6082e+00    1.1080e+00   -5.3686e-01   -1.1591e+01    2.8988e+00    1.0176e+00    5.1204e+00
    1370   -2.6074e+00    1.1062e+00   -5.2956e-01   -1.1526e+01    2.8989e+00    1.0123e+00    5.1078e+00
    1380   -2.6062e+00    1.1042e+00   -5.2130e-01   -1.1569e+01    2.8997e+00    1.0069e+00    5.1301e+00
    1390   -2.6052e+00    1.1021e+00   -5.1352e-01   -1.1543e+01    2.9005e+00    1.0017e+00    5.1293e+00
    1400   -2.6052e+00    1.0999e+00   -5.0669e-01   -1.1527e+01    2.8998e+00    9.9635e-01    5.3260e+00
    1410   -2.6135e+00    1.0973e+00   -5.1776e-01   -1.1570e+01    2.8915e+00    9.9086e-01    5.4549e+00
    1420   -2.6137e+00    1.0948e+00   -5.1558e-01   -1.1551e+01    2.8904e+00    9.8575e-01    5.1724e+00
    1430   -2.6139e+00    1.0922e+00   -5.0832e-01   -1.1523e+01    2.8902e+00    9.8015e-01    5.1165e+00
    1440   -2.6139e+00    1.0896e+00   -5.0137e-01   -1.1542e+01    2.8894e+00    9.7511e-01    5.1122e+00
    1450   -2.6141e+00    1.0867e+00   -4.9459e-01   -1.1515e+01    2.8891e+00    9.6949e-01    5.1124e+00
    1460   -2.6139e+00    1.0838e+00   -4.8664e-01   -1.1542e+01    2.8888e+00    9.6460e-01    5.0526e+00
    1470   -2.6143e+00    1.0807e+00   -4.8041e-01   -1.1542e+01    2.8876e+00    9.5900e-01    5.0634e+00
    1480   -2.6147e+00    1.0776e+00   -4.7332e-01   -1.1509e+01    2.8873e+00    9.5425e-01    5.0185e+00
    1490   -2.6151e+00    1.0744e+00   -4.6663e-01   -1.1537e+01    2.8864e+00    9.4872e-01    5.0009e+00
    1500   -2.6159e+00    1.0710e+00   -4.6021e-01   -1.1540e+01    2.8853e+00    9.4395e-01    5.0909e+00
    1510   -2.6155e+00    1.0675e+00   -4.4879e-01   -1.1503e+01    2.8853e+00    9.3821e-01    5.0826e+00
    1520   -2.6171e+00    1.0639e+00   -4.4317e-01   -1.1532e+01    2.8842e+00    9.3289e-01    5.0503e+00
    1530   -2.6188e+00    1.0602e+00   -4.3816e-01   -1.1533e+01    2.8811e+00    9.2723e-01    5.2589e+00
    1540   -2.6244e+00    1.0562e+00   -4.4912e-01   -1.1549e+01    2.8743e+00    9.2175e-01    5.4925e+00
    1550   -2.6277e+00    1.0523e+00   -4.3959e-01   -1.1548e+01    2.8736e+00    9.1638e-01    5.2140e+00
    1560   -2.6285e+00    1.0481e+00   -4.4053e-01   -1.1559e+01    2.8709e+00    9.1081e-01    5.2230e+00
    1570   -2.6295e+00    1.0439e+00   -4.3483e-01   -1.1545e+01    2.8693e+00    9.0564e-01    5.1702e+00
    1580   -2.6313e+00    1.0395e+00   -4.2913e-01   -1.1508e+01    2.8682e+00    9.0016e-01    5.0838e+00
    1590   -2.6321e+00    1.0351e+00   -4.2213e-01   -1.1509e+01    2.8665e+00    8.9534e-01    4.9518e+00
    1600   -2.6337e+00    1.0305e+00   -4.1736e-01   -1.1535e+01    2.8651e+00    8.9025e-01    5.0314e+00
    1610   -2.6335e+00    1.0258e+00   -4.0662e-01   -1.1513e+01    2.8649e+00    8.8660e-01    4.9573e+00
    1620   -2.6355e+00    1.0210e+00   -4.0122e-01   -1.1472e+01    2.8627e+00    8.8287e-01    5.0035e+00
    1630   -2.6369e+00    1.0160e+00   -3.9445e-01   -1.1507e+01    2.8613e+00    8.8042e-01    4.9564e+00
    1640   -2.6386e+00    1.0108e+00   -3.8882e-01   -1.1456e+01    2.8593e+00    8.7776e-01    4.9219e+00
    1650   -2.6405e+00    1.0056e+00   -3.8276e-01   -1.1511e+01    2.8578e+00    8.7611e-01    4.9370e+00
    1660   -2.6434e+00    1.0001e+00   -3.8395e-01   -1.1518e+01    2.8543e+00    8.7441e-01    5.3023e+00
    1670   -2.6467e+00    9.9472e-01   -3.8130e-01   -1.1534e+01    2.8502e+00    8.7327e-01    5.1677e+00
    1680   -2.6537e+00    9.8918e-01   -3.8530e-01   -1.1543e+01    2.8438e+00    8.7245e-01    5.0485e+00
    1690   -2.6546e+00    9.8372e-01   -3.7796e-01   -1.1501e+01    2.8416e+00    8.7180e-01    4.9218e+00
    1700   -2.6594e+00    9.7801e-01   -3.7430e-01   -1.1526e+01    2.8373e+00    8.7166e-01    5.1608e+00
    1710   -2.6600e+00    9.7205e-01   -3.6469e-01   -1.1461e+01    2.8368e+00    8.7142e-01    4.9408e+00
    1720   -2.6642e+00    9.6568e-01   -3.5940e-01   -1.1444e+01    2.8331e+00    8.7186e-01    4.9527e+00
    1730   -2.6671e+00    9.5902e-01   -3.5395e-01   -1.1444e+01    2.8300e+00    8.7221e-01    4.9275e+00
    1740   -2.6708e+00    9.5205e-01   -3.4790e-01   -1.1457e+01    2.8264e+00    8.7321e-01    4.8304e+00
    1750   -2.6756e+00    9.4469e-01   -3.4393e-01   -1.1492e+01    2.8217e+00    8.7405e-01    4.9416e+00
    1760   -2.6797e+00    9.3704e-01   -3.3854e-01   -1.1468e+01    2.8185e+00    8.7548e-01    4.8695e+00
    1770   -2.6847e+00    9.2900e-01   -3.3538e-01   -1.1450e+01    2.8122e+00    8.7673e-01    5.1014e+00
    1780   -2.6927e+00    9.2034e-01   -3.4358e-01   -1.1498e+01    2.8044e+00    8.7832e-01    4.9389e+00
    1790   -2.7016e+00    9.1153e-01   -3.4412e-01   -1.1434e+01    2.7964e+00    8.7972e-01    4.9824e+00
    1800   -2.7077e+00    9.0242e-01   -3.4191e-01   -1.1435e+01    2.7908e+00    8.8125e-01    4.9634e+00
    1810   -2.7124e+00    8.9297e-01   -3.3594e-01   -1.1375e+01    2.7864e+00    8.8269e-01    4.8625e+00
    1820   -2.7199e+00    8.8304e-01   -3.3569e-01   -1.1417e+01    2.7794e+00    8.8412e-01    4.9501e+00
    1830   -2.7268e+00    8.7286e-01   -3.3523e-01   -1.1140e+01    2.7728e+00    8.8548e-01    4.7911e+00
    1840   -2.7330e+00    8.6226e-01   -3.3848e-01   -1.1221e+01    2.7658e+00    8.8669e-01    5.0651e+00
    1850   -2.7473e+00    8.5157e-01   -3.4386e-01   -1.1478e+01    2.7532e+00    8.8783e-01    5.0820e+00
    1860   -2.7574e+00    8.4035e-01   -3.5353e-01   -1.1482e+01    2.7433e+00    8.8878e-01    4.9520e+00
    1870   -2.7651e+00    8.2910e-01   -3.5467e-01   -1.1360e+01    2.7358e+00    8.8967e-01    4.6625e+00
    1880   -2.7741e+00    8.1759e-01   -3.5753e-01   -1.1494e+01    2.7270e+00    8.9034e-01    4.7495e+00
    1890   -2.7828e+00    8.0585e-01   -3.6058e-01   -1.1405e+01    2.7185e+00    8.9093e-01    4.6256e+00
    1900   -2.7921e+00    7.9385e-01   -3.6375e-01   -1.1415e+01    2.7091e+00    8.9129e-01    5.0780e+00
    1910   -2.8040e+00    7.8147e-01   -3.7735e-01   -1.1529e+01    2.6967e+00    8.9151e-01    4.8221e+00
    1920   -2.8158e+00    7.6890e-01   -3.8416e-01   -1.1530e+01    2.6855e+00    8.9151e-01    4.8167e+00
    1930   -2.8251e+00    7.5622e-01   -3.8815e-01   -1.1496e+01    2.6765e+00    8.9138e-01    4.6632e+00
    1940   -2.8356e+00    7.4331e-01   -3.9333e-01   -1.1528e+01    2.6659e+00    8.9104e-01    4.6573e+00
    1950   -2.8458e+00    7.3022e-01   -3.9792e-01   -1.1523e+01    2.6558e+00    8.9051e-01    4.6658e+00
    1960   -2.8563e+00    7.1695e-01   -4.0401e-01   -1.1515e+01    2.6453e+00    8.8983e-01    4.6249e+00
    1970   -2.8707e+00    7.0345e-01   -4.2072e-01   -1.1526e+01    2.6306e+00    8.8894e-01    4.8871e+00
    1980   -2.8838e+00    6.8985e-01   -4.2989e-01   -1.1498e+01    2.6186e+00    8.8790e-01    4.8783e+00
    1990   -2.8957e+00    6.7611e-01   -4.3806e-01   -1.1501e+01    2.6071e+00    8.8667e-01    4.7792e+00
    2000   -2.9059e+00    6.6230e-01   -4.4417e-01   -1.1491e+01    2.5969e+00    8.8527e-01    4.7393e+00
    2010   -2.9150e+00    6.4827e-01   -4.4895e-01   -1.1524e+01    2.5875e+00    8.8370e-01    4.7532e+00
    2020   -2.9253e+00    6.3412e-01   -4.5936e-01   -1.1522e+01    2.5775e+00    8.8195e-01    5.3191e+00
    2030   -2.9456e+00    6.1965e-01   -4.7296e-01   -1.1537e+01    2.5581e+00    8.8002e-01    4.9982e+00
    2040   -2.9582e+00    6.0533e-01   -4.8772e-01   -1.1507e+01    2.5462e+00    8.7794e-01    4.9628e+00
    2050   -2.9696e+00    5.9098e-01   -4.9632e-01   -1.1495e+01    2.5348e+00    8.7568e-01    4.5876e+00
    2060   -2.9818e+00    5.7654e-01   -5.0486e-01   -1.1489e+01    2.5225e+00    8.7327e-01    4.6188e+00
    2070   -2.9940e+00    5.6213e-01   -5.1461e-01   -1.1491e+01    2.5098e+00    8.7069e-01    4.5450e+00
    2080   -3.0063e+00    5.4770e-01   -5.2330e-01   -1.1470e+01    2.4981e+00    8.6795e-01    4.5310e+00
    2090   -3.0185e+00    5.3333e-01   -5.3371e-01   -1.1513e+01    2.4865e+00    8.6505e-01    5.0935e+00
    2100   -3.0335e+00    5.1899e-01   -5.5175e-01   -1.1517e+01    2.4717e+00    8.6195e-01    4.9333e+00
    2110   -3.0482e+00    5.0466e-01   -5.6568e-01   -1.1478e+01    2.4570e+00    8.5866e-01    4.8268e+00
    2120   -3.0600e+00    4.9048e-01   -5.7536e-01   -1.1453e+01    2.4455e+00    8.5522e-01    4.6019e+00
    2130   -3.0731e+00    4.7637e-01   -5.8606e-01   -1.1475e+01    2.4323e+00    8.5162e-01    4.4418e+00
    2140   -3.0858e+00    4.6247e-01   -5.9741e-01   -1.1478e+01    2.4206e+00    8.4785e-01    4.5020e+00
    2150   -3.0986e+00    4.4881e-01   -6.0884e-01   -1.1468e+01    2.4076e+00    8.4391e-01    4.4725e+00
    2160   -3.1149e+00    4.3532e-01   -6.2461e-01   -1.1500e+01    2.3916e+00    8.3980e-01    4.7499e+00
    2170   -3.1279e+00    4.2228e-01   -6.4146e-01   -1.1503e+01    2.3799e+00    8.3551e-01    4.8624e+00
    2180   -3.1448e+00    4.0921e-01   -6.5432e-01   -1.1486e+01    2.3644e+00    8.3104e-01    4.9856e+00
    2190   -3.1571e+00    3.9691e-01   -6.7037e-01   -1.1501e+01    2.3525e+00    8.2639e-01    4.8044e+00
    2200   -3.1701e+00    3.8495e-01   -6.8277e-01   -1.1451e+01    2.3404e+00    8.2158e-01    4.5262e+00
    2210   -3.1810e+00    3.7334e-01   -6.9305e-01   -1.1441e+01    2.3307e+00    8.1653e-01    4.5240e+00
    2220   -3.1940e+00    3.6220e-01   -7.0539e-01   -1.1447e+01    2.3185e+00    8.1132e-01    4.5028e+00
    2230   -3.2074e+00    3.5159e-01   -7.1873e-01   -1.1469e+01    2.3055e+00    8.0590e-01    4.4706e+00
    2240   -3.2199e+00    3.4163e-01   -7.3222e-01   -1.1496e+01    2.2942e+00    8.0029e-01    4.4844e+00
    2250   -3.2378e+00    3.3217e-01   -7.5472e-01   -1.1495e+01    2.2774e+00    7.9450e-01    4.6105e+00
    2260   -3.2495e+00    3.2370e-01   -7.6871e-01   -1.1504e+01    2.2684e+00    7.8847e-01    4.9542e+00
    2270   -3.2659e+00    3.1561e-01   -7.8684e-01   -1.1491e+01    2.2517e+00    7.8226e-01    4.6975e+00
    2280   -3.2778e+00    3.0859e-01   -8.0090e-01   -1.1460e+01    2.2416e+00    7.7587e-01    4.5277e+00
    2290   -3.2903e+00    3.0228e-01   -8.1522e-01   -1.1467e+01    2.2312e+00    7.6927e-01    4.4057e+00
    2300   -3.3025e+00    2.9683e-01   -8.3037e-01   -1.1426e+01    2.2205e+00    7.6247e-01    4.5113e+00
    2310   -3.3124e+00    2.9225e-01   -8.4265e-01   -1.1465e+01    2.2126e+00    7.5538e-01    4.4941e+00
    2320   -3.3245e+00    2.8845e-01   -8.5773e-01   -1.1440e+01    2.2024e+00    7.4808e-01    4.3859e+00
    2330   -3.3361e+00    2.8538e-01   -8.7337e-01   -1.1450e+01    2.1933e+00    7.4056e-01    4.3825e+00
    2340   -3.3475e+00    2.8295e-01   -8.8912e-01   -1.1461e+01    2.1843e+00    7.3284e-01    4.3871e+00
    2350   -3.3587e+00    2.8106e-01   -9.0480e-01   -1.1453e+01    2.1752e+00    7.2489e-01    4.4401e+00
    2360   -3.3700e+00    2.7966e-01   -9.2128e-01   -1.1432e+01    2.1660e+00    7.1672e-01    4.3822e+00
    2370   -3.3812e+00    2.7861e-01   -9.3801e-01   -1.1461e+01    2.1575e+00    7.0833e-01    4.3962e+00
    2380   -3.3922e+00    2.7778e-01   -9.5463e-01   -1.1483e+01    2.1487e+00    6.9971e-01    4.3819e+00
    2390   -3.4029e+00    2.7706e-01   -9.7144e-01   -1.1464e+01    2.1403e+00    6.9087e-01    4.4176e+00
    2400   -3.4036e+00    2.7660e-01   -9.7650e-01   -1.1503e+01    2.1407e+00    6.8179e-01    4.8780e+00
    2410   -3.4169e+00    2.7600e-01   -9.9483e-01   -1.1497e+01    2.1305e+00    6.7235e-01    4.6589e+00
    2420   -3.4255e+00    2.7543e-01   -1.0102e+00   -1.1469e+01    2.1241e+00    6.6270e-01    4.6007e+00
    2430   -3.4365e+00    2.7492e-01   -1.0267e+00   -1.1442e+01    2.1158e+00    6.5281e-01    4.4238e+00
    2440   -3.4482e+00    2.7436e-01   -1.0450e+00   -1.1471e+01    2.1068e+00    6.4266e-01    4.3966e+00
    2450   -3.4594e+00    2.7376e-01   -1.0624e+00   -1.1485e+01    2.0984e+00    6.3225e-01    4.4137e+00
    2460   -3.4682e+00    2.7316e-01   -1.0763e+00   -1.1460e+01    2.0919e+00    6.2157e-01    4.5259e+00
    2470   -3.4758e+00    2.7247e-01   -1.0845e+00   -1.1491e+01    2.0870e+00    6.1061e-01    4.5168e+00
    2480   -3.4876e+00    2.7171e-01   -1.1029e+00   -1.1428e+01    2.0779e+00    5.9936e-01    4.4644e+00
    2490   -3.4990e+00    2.7080e-01   -1.1199e+00   -1.1403e+01    2.0693e+00    5.8782e-01    4.3926e+00
    2500   -3.5107e+00    2.6974e-01   -1.1382e+00   -1.1410e+01    2.0607e+00    5.7598e-01    4.4165e+00
    2510   -3.5208e+00    2.6852e-01   -1.1536e+00   -1.1451e+01    2.0532e+00    5.6371e-01    4.4361e+00
    2520   -3.5327e+00    2.6707e-01   -1.1711e+00   -1.1420e+01    2.0447e+00    5.5113e-01    4.4010e+00
    2530   -3.5443e+00    2.6539e-01   -1.1891e+00   -1.1443e+01    2.0353e+00    5.3822e-01    4.4288e+00
    2540   -3.5561e+00    2.6349e-01   -1.2091e+00   -1.1479e+01    2.0257e+00    5.2497e-01    4.4257e+00
    2550   -3.5674e+00    2.6134e-01   -1.2290e+00   -1.1460e+01    2.0181e+00    5.1138e-01    4.4044e+00
    2560   -3.5783e+00    2.5899e-01   -1.2483e+00   -1.1459e+01    2.0108e+00    4.9744e-01    4.3987e+00
    2570   -3.5885e+00    2.5641e-01   -1.2673e+00   -1.1462e+01    2.0014e+00    4.8314e-01    4.4053e+00
    2580   -3.5983e+00    2.5361e-01   -1.2701e+00   -1.1457e+01    1.9964e+00    4.6845e-01    4.5310e+00
    2590   -3.6085e+00    2.5063e-01   -1.2921e+00   -1.1488e+01    1.9895e+00    4.5344e-01    4.5064e+00
    2600   -3.6177e+00    2.4743e-01   -1.3075e+00   -1.1398e+01    1.9805e+00    4.3813e-01    4.4277e+00
    2610   -3.6256e+00    2.4398e-01   -1.3242e+00   -1.1404e+01    1.9772e+00    4.2237e-01    4.3863e+00
    2620   -3.6359e+00    2.4020e-01   -1.3476e+00   -1.1349e+01    1.9664e+00    4.0633e-01    4.3893e+00
    2630   -3.6462e+00    2.3617e-01   -1.3728e+00   -1.1425e+01    1.9569e+00    3.9002e-01    4.3970e+00
    2640   -3.6571e+00    2.3178e-01   -1.3967e+00   -1.1394e+01    1.9489e+00    3.7346e-01    4.3608e+00
    2650   -3.6676e+00    2.2711e-01   -1.4219e+00   -1.1329e+01    1.9378e+00    3.5664e-01    4.4035e+00
    2660   -3.6780e+00    2.2210e-01   -1.4449e+00   -1.1372e+01    1.9287e+00    3.3958e-01    4.4070e+00
    2670   -3.6877e+00    2.1683e-01   -1.4675e+00   -1.1346e+01    1.9178e+00    3.2226e-01    4.3723e+00
    2680   -3.6974e+00    2.1128e-01   -1.4849e+00   -1.1210e+01    1.9075e+00    3.0472e-01    4.3324e+00
    2690   -3.7063e+00    2.0549e-01   -1.5020e+00   -1.1360e+01    1.8990e+00    2.8694e-01    4.3423e+00
    2700   -3.7150e+00    1.9944e-01   -1.5155e+00   -1.1282e+01    1.8893e+00    2.6896e-01    4.3414e+00
    2710   -3.7212e+00    1.9314e-01   -1.5205e+00   -1.1374e+01    1.8823e+00    2.5060e-01    4.2582e+00
    2720   -3.7295e+00    1.8657e-01   -1.5270e+00   -1.1426e+01    1.8741e+00    2.3203e-01    4.2459e+00
    2730   -3.7362e+00    1.7976e-01   -1.5283e+00   -1.1374e+01    1.8661e+00    2.1330e-01    4.4246e+00
    2740   -3.7426e+00    1.7279e-01   -1.5235e+00   -1.1403e+01    1.8614e+00    1.9441e-01    4.3719e+00
    2750   -3.7484e+00    1.6555e-01   -1.5311e+00   -1.1439e+01    1.8508e+00    1.7540e-01    4.2085e+00
    2760   -3.7550e+00    1.5815e-01   -1.5256e+00   -1.1445e+01    1.8444e+00    1.5629e-01    4.3365e+00
    2770   -3.7575e+00    1.5054e-01   -1.5210e+00   -1.1426e+01    1.8378e+00    1.3711e-01    4.2690e+00
    2780   -3.7624e+00    1.4274e-01   -1.5166e+00   -1.1494e+01    1.8301e+00    1.1790e-01    4.3101e+00
    2790   -3.7674e+00    1.3480e-01   -1.5100e+00   -1.1482e+01    1.8251e+00    9.8694e-02    4.1866e+00